 Entering Gaussian System, Link 0=g09
 Input=/home/ytsai.iquir/menthol/01_menthol_M0073_MMFF_NMR_rhf_STO-3G_nbo.gjc
 Output=/home/ytsai.iquir/menthol/01_menthol_M0073_MMFF_NMR_rhf_STO-3G_nbo.log
 Initial command:
 /share/apps/Gaussian09/EM64T.SSE4.2-enabled/g09/l1.exe /tmp/Gau-7354.inp -scrdir=/tmp/
 Entering Link 1 = /share/apps/Gaussian09/EM64T.SSE4.2-enabled/g09/l1.exe PID=      7356.
  
 Copyright (c) 1988,1990,1992,1993,1995,1998,2003,2009,2011,
            Gaussian, Inc.  All Rights Reserved.
  
 This is part of the Gaussian(R) 09 program.  It is based on
 the Gaussian(R) 03 system (copyright 2003, Gaussian, Inc.),
 the Gaussian(R) 98 system (copyright 1998, Gaussian, Inc.),
 the Gaussian(R) 94 system (copyright 1995, Gaussian, Inc.),
 the Gaussian 92(TM) system (copyright 1992, Gaussian, Inc.),
 the Gaussian 90(TM) system (copyright 1990, Gaussian, Inc.),
 the Gaussian 88(TM) system (copyright 1988, Gaussian, Inc.),
 the Gaussian 86(TM) system (copyright 1986, Carnegie Mellon
 University), and the Gaussian 82(TM) system (copyright 1983,
 Carnegie Mellon University). Gaussian is a federally registered
 trademark of Gaussian, Inc.
  
 This software contains proprietary and confidential information,
 including trade secrets, belonging to Gaussian, Inc.
  
 This software is provided under written license and may be
 used, copied, transmitted, or stored only in accord with that
 written license.
  
 The following legend is applicable only to US Government
 contracts under FAR:
  
                    RESTRICTED RIGHTS LEGEND
  
 Use, reproduction and disclosure by the US Government is
 subject to restrictions as set forth in subparagraphs (a)
 and (c) of the Commercial Computer Software - Restricted
 Rights clause in FAR 52.227-19.
  
 Gaussian, Inc.
 340 Quinnipiac St., Bldg. 40, Wallingford CT 06492
  
  
 ---------------------------------------------------------------
 Warning -- This program may not be used in any manner that
 competes with the business of Gaussian, Inc. or will provide
 assistance to any competitor of Gaussian, Inc.  The licensee
 of this program is prohibited from giving any competitor of
 Gaussian, Inc. access to this program.  By using this program,
 the user acknowledges that Gaussian, Inc. is engaged in the
 business of creating and licensing software in the field of
 computational chemistry and represents and warrants to the
 licensee that it is not a competitor of Gaussian, Inc. and that
 it will not use this program in any manner prohibited above.
 ---------------------------------------------------------------
  

 Cite this work as:
 Gaussian 09, Revision C.01,
 M. J. Frisch, G. W. Trucks, H. B. Schlegel, G. E. Scuseria, 
 M. A. Robb, J. R. Cheeseman, G. Scalmani, V. Barone, B. Mennucci, 
 G. A. Petersson, H. Nakatsuji, M. Caricato, X. Li, H. P. Hratchian, 
 A. F. Izmaylov, J. Bloino, G. Zheng, J. L. Sonnenberg, M. Hada, 
 M. Ehara, K. Toyota, R. Fukuda, J. Hasegawa, M. Ishida, T. Nakajima, 
 Y. Honda, O. Kitao, H. Nakai, T. Vreven, J. A. Montgomery, Jr., 
 J. E. Peralta, F. Ogliaro, M. Bearpark, J. J. Heyd, E. Brothers, 
 K. N. Kudin, V. N. Staroverov, T. Keith, R. Kobayashi, J. Normand, 
 K. Raghavachari, A. Rendell, J. C. Burant, S. S. Iyengar, J. Tomasi, 
 M. Cossi, N. Rega, J. M. Millam, M. Klene, J. E. Knox, J. B. Cross, 
 V. Bakken, C. Adamo, J. Jaramillo, R. Gomperts, R. E. Stratmann, 
 O. Yazyev, A. J. Austin, R. Cammi, C. Pomelli, J. W. Ochterski, 
 R. L. Martin, K. Morokuma, V. G. Zakrzewski, G. A. Voth, 
 P. Salvador, J. J. Dannenberg, S. Dapprich, A. D. Daniels, 
 O. Farkas, J. B. Foresman, J. V. Ortiz, J. Cioslowski, 
 and D. J. Fox, Gaussian, Inc., Wallingford CT, 2010.
 
 ******************************************
 Gaussian 09:  EM64L-G09RevC.01 23-Sep-2011
                 3-Aug-2021 
 ******************************************
 %nprocshared=4
 Will use up to    4 processors via shared memory.
 ------------------------
 # rhf/STO-3G nmr pop=nbo
 ------------------------
 1/38=1/1;
 2/12=2,17=6,18=5,40=1/2;
 3/6=3,11=1,16=1,25=1,30=1,116=1/1,2,8,3;
 4//1;
 5/5=2,38=5/2;
 8/6=1,10=90,11=11/1;
 10/13=100,45=16/2;
 6/7=2,8=2,9=2,10=2,28=1,64=1/1,7;
 99/9=1/99;
 -------
 comment
 -------
 Charge =  0 Multiplicity = 1
 Symbolic Z-Matrix:
 6                     0.84293   0.25157  -3.35932 
 6                    -0.15736   0.33296  -2.20512 
 6                     0.68406  -0.7992   -0.0498 
 6                    -0.50425   1.47797   0.01535 
 6                     0.25547   0.40476   0.82748 
 6                     0.06527   1.61543  -1.39064 
 6                    -0.14199  -0.93721  -1.33103 
 8                     2.05438  -0.64076  -0.42995 
 6                    -0.54129   0.01589   2.10639 
 6                     0.36151  -0.68309   3.13055 
 6                    -1.77943  -0.8461    1.84306 
 1                     1.87252   0.1706   -2.99697 
 1                     0.63712  -0.61903  -3.99099 
 1                     0.77675   1.14387  -3.99104 
 1                    -1.15583   0.39143  -2.66011 
 1                     0.63394  -1.74079   0.50478 
 1                    -0.43181   2.44063   0.53616 
 1                    -1.57236   1.24591  -0.0564 
 1                     1.1733    0.9009    1.17702 
 1                     1.13373   1.85708  -1.32561 
 1                    -0.4116    2.45893  -1.90424 
 1                     0.22383  -1.78798  -1.91908 
 1                    -1.17572  -1.17803  -1.0526 
 1                     2.58496  -0.64165   0.38502 
 1                    -0.88554   0.94735   2.57642 
 1                     0.71433  -1.65461   2.77145 
 1                     1.23707  -0.06759   3.3624 
 1                    -0.17996  -0.8522    4.06778 
 1                    -1.51551  -1.82695   1.43586 
 1                    -2.47029  -0.36266   1.14722 
 1                    -2.32823  -1.01741   2.77599 
 
                          Input orientation:                          
 ---------------------------------------------------------------------
 Center     Atomic      Atomic             Coordinates (Angstroms)
 Number     Number       Type             X           Y           Z
 ---------------------------------------------------------------------
      1          6           0        0.842930    0.251566   -3.359323
      2          6           0       -0.157363    0.332958   -2.205124
      3          6           0        0.684057   -0.799201   -0.049802
      4          6           0       -0.504252    1.477973    0.015349
      5          6           0        0.255471    0.404757    0.827480
      6          6           0        0.065265    1.615426   -1.390636
      7          6           0       -0.141991   -0.937206   -1.331033
      8          8           0        2.054382   -0.640759   -0.429955
      9          6           0       -0.541291    0.015887    2.106385
     10          6           0        0.361512   -0.683095    3.130550
     11          6           0       -1.779434   -0.846097    1.843063
     12          1           0        1.872524    0.170601   -2.996974
     13          1           0        0.637121   -0.619030   -3.990990
     14          1           0        0.776753    1.143871   -3.991039
     15          1           0       -1.155825    0.391431   -2.660107
     16          1           0        0.633941   -1.740788    0.504784
     17          1           0       -0.431811    2.440634    0.536160
     18          1           0       -1.572355    1.245907   -0.056405
     19          1           0        1.173300    0.900901    1.177023
     20          1           0        1.133728    1.857081   -1.325612
     21          1           0       -0.411599    2.458927   -1.904243
     22          1           0        0.223830   -1.787976   -1.919077
     23          1           0       -1.175723   -1.178032   -1.052599
     24          1           0        2.584965   -0.641654    0.385019
     25          1           0       -0.885541    0.947354    2.576416
     26          1           0        0.714330   -1.654611    2.771448
     27          1           0        1.237067   -0.067594    3.362398
     28          1           0       -0.179960   -0.852204    4.067775
     29          1           0       -1.515510   -1.826954    1.435858
     30          1           0       -2.470286   -0.362664    1.147222
     31          1           0       -2.328233   -1.017408    2.775988
 ---------------------------------------------------------------------
                    Distance matrix (angstroms):
                    1          2          3          4          5
     1  C    0.000000
     2  C    1.529505   0.000000
     3  C    3.475958   2.575886   0.000000
     4  C    3.835020   2.522279   2.569405   0.000000
     5  C    4.230590   3.061417   1.550105   1.545487   0.000000
     6  C    2.518055   1.535474   2.830400   1.523167   2.534154
     7  C    2.548962   1.541943   1.530671   2.788739   2.572551
     8  O    3.293184   2.998528   1.430878   3.351705   2.431116
     9  C    5.643189   4.340167   2.610553   2.551764   1.556165
    10  C    6.574482   5.456282   3.198774   3.888989   2.549274
    11  C    5.928447   4.517644   3.107077   3.219927   2.595551
    12  H    1.094493   2.184909   3.322468   4.053686   4.158862
    13  H    1.095126   2.174121   3.945584   4.663787   4.940795
    14  H    1.095286   2.172475   4.395165   4.219448   4.902668
    15  H    2.122142   1.098797   3.408294   2.960268   3.762340
    16  H    4.352525   3.502882   1.093921   3.448978   2.202438
    17  H    4.646695   3.468755   3.476355   1.096909   2.168415
    18  H    4.210889   2.729959   3.045309   1.095375   2.197666
    19  H    4.594476   3.678606   2.152859   2.120537   1.100340
    20  H    2.607340   2.182524   2.980894   2.150553   2.741603
    21  H    2.926352   2.162154   3.905741   2.157704   3.482371
    22  H    2.572417   2.173820   2.164180   3.865039   3.514634
    23  H    3.382261   2.156029   2.146601   2.940365   2.843982
    24  H    4.225237   3.896033   1.956359   3.764669   2.591773
    25  H    6.221312   4.875536   3.522941   2.643104   2.157567
    26  H    6.421558   5.429231   2.948235   4.346735   2.868895
    27  H    6.740826   5.753449   3.533295   4.077218   2.759067
    28  H    7.578021   6.383916   4.207585   4.685835   3.502723
    29  H    5.733781   4.445957   2.846323   3.736714   2.913251
    30  H    5.627044   4.131795   3.401957   2.921364   2.849723
    31  H    7.022009   5.598896   4.136012   4.144268   3.534793
                    6          7          8          9         10
     6  C    0.000000
     7  C    2.561726   0.000000
     8  O    3.157509   2.392462   0.000000
     9  C    3.893019   3.589383   3.688051   0.000000
    10  C    5.080560   4.497089   3.942689   1.533800   0.000000
    11  C    4.463051   3.572732   4.461717   1.531455   2.503566
    12  H    2.816740   2.839166   2.698326   5.647540   6.368556
    13  H    3.475868   2.789915   3.832764   6.242577   7.127160
    14  H    2.736910   3.500086   4.183129   6.339414   7.363916
    15  H    2.144944   2.135316   4.042824   4.820595   6.081828
    16  H    3.896176   2.148962   2.025205   2.651830   2.843867
    17  H    2.154204   3.870428   4.075478   2.890847   4.137379
    18  H    2.144416   2.904583   4.105152   2.693270   4.197329
    19  H    2.886375   3.376236   2.394869   2.141678   2.642784
    20  H    1.097377   3.071730   2.808738   4.239609   5.187118
    21  H    1.096670   3.454704   4.226421   4.697915   5.984909
    22  H    3.447831   1.097009   2.623836   4.477016   5.170923
    23  H    3.075342   1.097326   3.333156   3.436150   4.484060
    24  H    3.820504   3.235502   0.972472   3.628903   3.533186
    25  H    4.133746   4.401431   4.494832   1.098667   2.126163
    26  H    5.332670   4.251859   3.615607   2.193047   1.094203
    27  H    5.176582   4.968533   3.921538   2.178782   1.095076
    28  H    5.995298   5.399611   5.026586   2.175131   1.095528
    29  H    4.726299   3.214637   4.199100   2.189696   2.775537
    30  H    4.096655   3.448595   4.799734   2.187308   3.472081
    31  H    5.479179   4.653355   5.443092   2.170075   2.733534
                   11         12         13         14         15
    11  C    0.000000
    12  H    6.147880   0.000000
    13  H    6.318820   1.771385   0.000000
    14  H    6.673142   1.770914   1.768423   0.000000
    15  H    4.711572   3.055019   2.450905   2.464225   0.000000
    16  H    2.901007   4.177296   4.633610   5.343602   4.214992
    17  H    3.785061   4.790203   5.567697   4.861867   3.865172
    18  H    2.833257   4.655150   4.882698   4.583674   2.771803
    19  H    3.494889   4.294706   5.413505   5.188945   4.517516
    20  H    5.082734   2.486662   3.671783   2.782194   3.028376
    21  H    5.180392   3.412874   3.863696   2.737931   2.323735
    22  H    4.365077   2.777783   2.414554   3.632421   2.683727
    23  H    2.976493   3.858913   3.497575   4.223485   2.246707
    24  H    4.606047   3.550381   4.789997   5.060397   4.932907
    25  H    2.133851   6.266812   6.921191   6.777411   5.272882
    26  H    2.781088   6.160154   6.841707   7.318923   6.097997
    27  H    3.466082   6.395479   7.398401   7.466764   6.496707
    28  H    2.740018   7.427617   8.103437   8.357279   6.911103
    29  H    1.094327   5.926128   5.961844   6.597839   4.671995
    30  H    1.093242   6.026502   6.010235   6.262159   4.097832
    31  H    1.095845   7.237735   7.398920   7.752723   5.736767
                   16         17         18         19         20
    16  H    0.000000
    17  H    4.315218   0.000000
    18  H    3.755399   1.754807   0.000000
    19  H    2.778728   2.314707   3.029685   0.000000
    20  H    4.067530   2.501528   3.050788   2.679371   0.000000
    21  H    4.953198   2.440555   2.496653   3.799151   1.756436
    22  H    2.458763   4.933478   3.987515   4.209202   3.803493
    23  H    2.452961   4.021481   2.650510   3.848517   3.823612
    24  H    2.242529   4.315586   4.587052   2.235966   3.357979
    25  H    3.718413   2.568735   2.737260   2.489836   4.486744
    26  H    2.269725   4.804289   4.651740   3.046881   5.412372
    27  H    3.365902   4.130858   4.615880   2.391215   5.068775
    28  H    3.761239   4.835134   4.832152   3.641585   6.176943
    29  H    2.344027   4.494015   3.416512   3.838995   5.311901
    30  H    3.456614   3.519553   2.200567   3.856578   4.902152
    31  H    3.802121   4.535560   3.703565   4.300852   6.088594
                   21         22         23         24         25
    21  H    0.000000
    22  H    4.294202   0.000000
    23  H    3.812696   1.755438   0.000000
    24  H    4.881979   3.492545   4.061677   0.000000
    25  H    4.752450   5.377935   4.215593   4.401316   0.000000
    26  H    6.328586   4.717986   4.292175   3.196936   3.060694
    27  H    6.069506   5.646267   5.152361   3.318306   2.480595
    28  H    6.832441   6.072982   5.226466   4.609971   2.441395
    29  H    5.544697   3.779208   2.594027   4.395804   3.065047
    30  H    4.637996   4.323421   2.679540   5.119995   2.504028
    31  H    6.137015   5.399114   4.001519   5.476992   2.445706
                   26         27         28         29         30
    26  H    0.000000
    27  H    1.772315   0.000000
    28  H    1.767506   1.766674   0.000000
    29  H    2.604935   3.792569   3.108185   0.000000
    30  H    3.801186   4.328803   3.743644   1.771738   0.000000
    31  H    3.108576   3.735959   2.512187   1.764038   1.761177
                   31
    31  H    0.000000
 Stoichiometry    C10H20O
 Framework group  C1[X(C10H20O)]
 Deg. of freedom    87
 Full point group                 C1      NOp   1
 Largest Abelian subgroup         C1      NOp   1
 Largest concise Abelian subgroup C1      NOp   1
                         Standard orientation:                         
 ---------------------------------------------------------------------
 Center     Atomic      Atomic             Coordinates (Angstroms)
 Number     Number       Type             X           Y           Z
 ---------------------------------------------------------------------
      1          6           0        3.375351    0.247367    0.216681
      2          6           0        2.080910   -0.542886    0.414949
      3          6           0       -0.032021    0.927160    0.316600
      4          6           0        0.061677   -1.355269   -0.859657
      5          6           0       -0.758705   -0.066641   -0.625267
      6          6           0        1.553593   -1.057048   -0.932365
      7          6           0        1.023987    0.259113    1.200633
      8          8           0        0.626084    1.925439   -0.469369
      9          6           0       -2.214099   -0.411238   -0.195467
     10          6           0       -3.148533    0.789262   -0.390853
     11          6           0       -2.343875   -0.932723    1.238606
     12          1           0        3.209640    1.152470   -0.375977
     13          1           0        3.798914    0.547247    1.181028
     14          1           0        4.124256   -0.362092   -0.300381
     15          1           0        2.338346   -1.415229    1.031472
     16          1           0       -0.737106    1.466104    0.956176
     17          1           0       -0.264829   -1.823567   -1.796300
     18          1           0       -0.113898   -2.092552   -0.068812
     19          1           0       -0.835868    0.412094   -1.612995
     20          1           0        1.737365   -0.325442   -1.729370
     21          1           0        2.101003   -1.964674   -1.213861
     22          1           0        1.518800    1.014439    1.823588
     23          1           0        0.515063   -0.424087    1.892268
     24          1           0       -0.059649    2.406001   -0.963871
     25          1           0       -2.577030   -1.202964   -0.865183
     26          1           0       -2.897953    1.617861    0.278411
     27          1           0       -3.099869    1.157328   -1.421071
     28          1           0       -4.187315    0.503967   -0.191552
     29          1           0       -2.065496   -0.173807    1.976240
     30          1           0       -1.722471   -1.816243    1.407211
     31          1           0       -3.380282   -1.222951    1.444767
 ---------------------------------------------------------------------
 Rotational constants (GHZ):      1.8873973      0.7121555      0.6537430
 Standard basis: STO-3G (5D, 7F)
 There are    75 symmetry adapted basis functions of A   symmetry.
 Integral buffers will be    131072 words long.
 Raffenetti 1 integral format.
 Two-electron integral symmetry is turned on.
    75 basis functions,   225 primitive gaussians,    75 cartesian basis functions
    44 alpha electrons       44 beta electrons
       nuclear repulsion energy       699.7138402263 Hartrees.
 NAtoms=   31 NActive=   31 NUniq=   31 SFac= 1.00D+00 NAtFMM=   60 NAOKFM=F Big=F
 One-electron integrals computed using PRISM.
 NBasis=    75 RedAO= T  NBF=    75
 NBsUse=    75 1.00D-06 NBFU=    75
 Harris functional with IExCor=  205 diagonalized for initial guess.
 ExpMin= 1.69D-01 ExpMax= 1.31D+02 ExpMxC= 1.31D+02 IAcc=1 IRadAn=         1 AccDes= 0.00D+00
 HarFok:  IExCor=  205 AccDes= 0.00D+00 IRadAn=         1 IDoV= 1
 ScaDFX=  1.000000  1.000000  1.000000  1.000000
 FoFCou: FMM=F IPFlag=           0 FMFlag=      100000 FMFlg1=           0
         NFxFlg=           0 DoJE=T BraDBF=F KetDBF=T FulRan=T
         Omega=  0.000000  0.000000  1.000000  0.000000  0.000000 ICntrl=     500 IOpCl=  0
         NMat0=    1 NMatS0=    1 NMatT0=    0 NMatD0=    1 NMtDS0=    0 NMtDT0=    0
         I1Cent=           4 NGrid=           0.
 Petite list used in FoFCou.
 Initial guess orbital symmetries:
       Occupied  (A) (A) (A) (A) (A) (A) (A) (A) (A) (A) (A) (A)
                 (A) (A) (A) (A) (A) (A) (A) (A) (A) (A) (A) (A)
                 (A) (A) (A) (A) (A) (A) (A) (A) (A) (A) (A) (A)
                 (A) (A) (A) (A) (A) (A) (A) (A)
       Virtual   (A) (A) (A) (A) (A) (A) (A) (A) (A) (A) (A) (A)
                 (A) (A) (A) (A) (A) (A) (A) (A) (A) (A) (A) (A)
                 (A) (A) (A) (A) (A) (A) (A)
 The electronic state of the initial guess is 1-A.
 Requested convergence on RMS density matrix=1.00D-08 within 128 cycles.
 Requested convergence on MAX density matrix=1.00D-06.
 Requested convergence on             energy=1.00D-06.
 No special actions if energy rises.
 Keep R1 ints in memory in canonical form, NReq=4898789.
 SCF Done:  E(RHF) =  -459.612313803     A.U. after   10 cycles
             Convg  =    0.8294D-08             -V/T =  2.0089
 Range of M.O.s used for correlation:     1    75
 NBasis=    75 NAE=    44 NBE=    44 NFC=     0 NFV=     0
 NROrb=     75 NOA=    44 NOB=    44 NVA=    31 NVB=    31
          Differentiating once with respect to magnetic field using GIAOs.
          Electric field/nuclear overlap derivatives assumed to be zero.
          Keep R3 ints in memory in canonical form, NReq=4863575.
 FoFCou: FMM=F IPFlag=           0 FMFlag=           0 FMFlg1=           0
         NFxFlg=           0 DoJE=F BraDBF=F KetDBF=T FulRan=T
         Omega=  0.000000  0.000000  1.000000  0.000000  0.000000 ICntrl=    6100 IOpCl=  0
         NMat0=    1 NMatS0=    1 NMatT0=    0 NMatD0=    1 NMtDS0=    0 NMtDT0=    0
         I1Cent=           7 NGrid=          31.
 Symmetry not used in FoFCou.
          There are     3 degrees of freedom in the 1st order CPHF.  IDoFFX=0.
      3 vectors produced by pass  0 Test12= 4.55D-14 3.33D-08 XBig12= 6.79D+00 3.72D-01.
 AX will form     3 AO Fock derivatives at one time.
      3 vectors produced by pass  1 Test12= 4.55D-14 3.33D-08 XBig12= 9.61D-03 1.44D-02.
      3 vectors produced by pass  2 Test12= 4.55D-14 3.33D-08 XBig12= 8.58D-05 2.21D-03.
      3 vectors produced by pass  3 Test12= 4.55D-14 3.33D-08 XBig12= 1.54D-06 4.13D-04.
      3 vectors produced by pass  4 Test12= 4.55D-14 3.33D-08 XBig12= 1.88D-08 2.63D-05.
      3 vectors produced by pass  5 Test12= 4.55D-14 3.33D-08 XBig12= 2.36D-10 2.73D-06.
      3 vectors produced by pass  6 Test12= 4.55D-14 3.33D-08 XBig12= 2.39D-12 2.86D-07.
 Inverted reduced A of dimension    21 with in-core refinement.
 Calculating GIAO nuclear magnetic shielding tensors.
 SCF GIAO Magnetic shielding tensor (ppm):
      1  C    Isotropic =   220.1476   Anisotropy =    28.1207
   XX=   233.9948   YX=     9.9710   ZX=     0.5887
   XY=    12.3254   YY=   213.3198   ZY=     0.3761
   XZ=    -3.8896   YZ=     2.5236   ZZ=   213.1283
   Eigenvalues:   207.7186   213.8295   238.8948
      2  C    Isotropic =   216.0110   Anisotropy =     8.8989
   XX=   221.9344   YX=    -0.7796   ZX=    -0.4369
   XY=     0.2928   YY=   211.8828   ZY=     4.9910
   XZ=     0.9444   YZ=     5.1655   ZZ=   214.2159
   Eigenvalues:   207.8303   218.2592   221.9436
      3  C    Isotropic =   189.0364   Anisotropy =    39.0522
   XX=   186.2847   YX=    14.0962   ZX=    -5.8216
   XY=    14.3865   YY=   193.1654   ZY=   -16.5122
   XZ=    -5.5699   YZ=   -17.3797   ZZ=   187.6590
   Eigenvalues:   170.7919   181.2460   215.0712
      4  C    Isotropic =   217.9018   Anisotropy =    15.5696
   XX=   225.8237   YX=    -1.9150   ZX=    -3.1111
   XY=    -5.4943   YY=   218.7566   ZY=     5.0675
   XZ=    -0.8408   YZ=     5.6174   ZZ=   209.1252
   Eigenvalues:   206.7434   218.6806   228.2816
      5  C    Isotropic =   206.3050   Anisotropy =    10.3894
   XX=   209.5418   YX=     3.2478   ZX=     1.8831
   XY=     7.4582   YY=   205.3714   ZY=    -1.1027
   XZ=     1.2928   YZ=    -1.7212   ZZ=   204.0017
   Eigenvalues:   200.4930   205.1907   213.2313
      6  C    Isotropic =   217.1342   Anisotropy =    16.1133
   XX=   220.8036   YX=     6.3067   ZX=     2.4022
   XY=     5.6411   YY=   212.4530   ZY=     5.1012
   XZ=     6.0648   YZ=     5.0313   ZZ=   218.1460
   Eigenvalues:   208.4570   215.0692   227.8764
      7  C    Isotropic =   216.7419   Anisotropy =    14.8667
   XX=   223.7412   YX=    -6.9988   ZX=     0.4425
   XY=    -5.2370   YY=   212.2101   ZY=     4.3559
   XZ=    -0.2263   YZ=     4.9673   ZZ=   214.2744
   Eigenvalues:   206.9588   216.6140   226.6531
      8  O    Isotropic =   346.1513   Anisotropy =    84.9579
   XX=   352.3941   YX=   -18.5577   ZX=    57.2634
   XY=   -10.6192   YY=   341.3935   ZY=   -11.4085
   XZ=    33.9900   YZ=   -24.1873   ZZ=   344.6664
   Eigenvalues:   302.4262   333.2378   402.7900
      9  C    Isotropic =   213.4400   Anisotropy =    16.0293
   XX=   223.7786   YX=    -0.5761   ZX=    -0.7323
   XY=     0.3588   YY=   209.0481   ZY=    -2.3496
   XZ=    -4.0523   YZ=    -2.3444   ZZ=   207.4934
   Eigenvalues:   205.5738   210.6200   224.1262
     10  C    Isotropic =   221.5041   Anisotropy =    26.8341
   XX=   225.3430   YX=   -12.0809   ZX=     2.8150
   XY=   -13.9926   YY=   224.2320   ZY=    -9.0606
   XZ=    -0.9406   YZ=    -6.4947   ZZ=   214.9373
   Eigenvalues:   207.6650   217.4538   239.3935
     11  C    Isotropic =   224.5826   Anisotropy =    19.8522
   XX=   220.5619   YX=     1.7260   ZX=    -2.1625
   XY=     1.0848   YY=   219.5479   ZY=    -7.2476
   XZ=    -0.6338   YZ=    -9.7086   ZZ=   233.6379
   Eigenvalues:   215.4763   220.4539   237.8174
     12  H    Isotropic =    32.0615   Anisotropy =     9.6601
   XX=    32.6922   YX=     2.1216   ZX=    -0.7240
   XY=     2.2328   YY=    34.8798   ZY=    -4.9814
   XZ=    -0.7182   YZ=    -4.9654   ZZ=    28.6126
   Eigenvalues:    25.8403    31.8426    38.5016
     13  H    Isotropic =    32.4504   Anisotropy =    14.0144
   XX=    35.2543   YX=     3.2546   ZX=     5.6949
   XY=     3.0725   YY=    27.8901   ZY=     3.4270
   XZ=     5.4417   YZ=     3.0507   ZZ=    34.2069
   Eigenvalues:    26.3975    29.1604    41.7934
     14  H    Isotropic =    32.4125   Anisotropy =    14.3254
   XX=    39.6010   YX=    -3.0600   ZX=    -3.9671
   XY=    -2.8280   YY=    28.9206   ZY=     2.4304
   XZ=    -4.1367   YZ=     2.8302   ZZ=    28.7158
   Eigenvalues:    26.0996    29.1751    41.9627
     15  H    Isotropic =    32.4071   Anisotropy =    13.5752
   XX=    30.8253   YX=    -3.6242   ZX=     2.5702
   XY=    -3.8434   YY=    35.1329   ZY=    -5.9759
   XZ=     2.6385   YZ=    -6.0378   ZZ=    31.2632
   Eigenvalues:    26.8835    28.8806    41.4573
     16  H    Isotropic =    32.0037   Anisotropy =     8.8377
   XX=    34.6240   YX=    -2.1689   ZX=    -3.1079
   XY=    -1.6030   YY=    31.3147   ZY=     3.0072
   XZ=    -2.6682   YZ=     4.4279   ZZ=    30.0723
   Eigenvalues:    26.7734    31.3421    37.8955
     17  H    Isotropic =    32.4029   Anisotropy =    14.2948
   XX=    30.6276   YX=     1.0300   ZX=     2.5938
   XY=     0.9874   YY=    31.3375   ZY=     7.6706
   XZ=     2.6234   YZ=     7.8574   ZZ=    35.2435
   Eigenvalues:    25.1547    30.1212    41.9327
     18  H    Isotropic =    32.7149   Anisotropy =     9.8011
   XX=    32.0925   YX=     1.4203   ZX=    -2.3949
   XY=     1.1859   YY=    36.5402   ZY=    -4.0739
   XZ=    -2.3416   YZ=    -4.4716   ZZ=    29.5119
   Eigenvalues:    26.9613    31.9344    39.2489
     19  H    Isotropic =    32.8016   Anisotropy =     9.8148
   XX=    31.3879   YX=    -0.8716   ZX=     1.0394
   XY=    -1.4943   YY=    30.0266   ZY=    -4.5750
   XZ=     1.0312   YZ=    -4.1270   ZZ=    36.9903
   Eigenvalues:    27.8228    31.2371    39.3448
     20  H    Isotropic =    32.4370   Anisotropy =    10.1857
   XX=    31.6825   YX=     1.5212   ZX=    -3.0757
   XY=     1.5055   YY=    29.4475   ZY=    -3.7008
   XZ=    -3.1980   YZ=    -3.1679   ZZ=    36.1808
   Eigenvalues:    27.9915    30.0919    39.2274
     21  H    Isotropic =    32.2822   Anisotropy =    15.0323
   XX=    32.7822   YX=    -5.2741   ZX=    -2.1380
   XY=    -5.7782   YY=    35.3611   ZY=     5.8716
   XZ=    -2.1046   YZ=     5.6715   ZZ=    28.7033
   Eigenvalues:    25.1993    29.3436    42.3038
     22  H    Isotropic =    32.1251   Anisotropy =    13.1421
   XX=    31.7305   YX=     1.9581   ZX=     3.6004
   XY=     2.0631   YY=    30.8102   ZY=     6.5488
   XZ=     3.9814   YZ=     6.3220   ZZ=    33.8345
   Eigenvalues:    25.5858    29.9029    40.8865
     23  H    Isotropic =    32.5356   Anisotropy =    11.0494
   XX=    32.6925   YX=     2.1437   ZX=    -3.1494
   XY=     1.5909   YY=    28.9374   ZY=    -4.8689
   XZ=    -2.4187   YZ=    -4.6195   ZZ=    35.9769
   Eigenvalues:    26.5168    31.1881    39.9019
     24  H    Isotropic =    35.0491   Anisotropy =    17.7289
   XX=    34.8916   YX=    -4.0431   ZX=     4.0863
   XY=    -2.1533   YY=    38.4403   ZY=    -8.9663
   XZ=     4.1168   YZ=    -9.3167   ZZ=    31.8153
   Eigenvalues:    25.1135    33.1654    46.8683
     25  H    Isotropic =    32.5181   Anisotropy =    12.2599
   XX=    32.7842   YX=     3.3046   ZX=     3.1364
   XY=     3.1919   YY=    33.4331   ZY=     5.9157
   XZ=     2.8271   YZ=     5.5992   ZZ=    31.3371
   Eigenvalues:    26.5236    30.3394    40.6914
     26  H    Isotropic =    32.7123   Anisotropy =     9.6773
   XX=    31.6509   YX=    -1.9029   ZX=     0.5654
   XY=    -1.9412   YY=    36.7900   ZY=     4.3507
   XZ=     0.6538   YZ=     4.3818   ZZ=    29.6961
   Eigenvalues:    27.1759    31.7972    39.1639
     27  H    Isotropic =    32.7246   Anisotropy =    12.8194
   XX=    31.0700   YX=    -2.7325   ZX=     2.4243
   XY=    -2.6824   YY=    30.2532   ZY=    -5.9724
   XZ=     2.3081   YZ=    -5.4003   ZZ=    36.8505
   Eigenvalues:    26.6021    30.3007    41.2708
     28  H    Isotropic =    32.4868   Anisotropy =    14.5384
   XX=    42.1226   YX=    -0.3654   ZX=    -0.6279
   XY=    -0.6910   YY=    28.1591   ZY=    -1.1880
   XZ=    -0.9435   YZ=    -1.3777   ZZ=    27.1786
   Eigenvalues:    26.2391    29.0422    42.1790
     29  H    Isotropic =    32.9618   Anisotropy =     9.0346
   XX=    30.7301   YX=     2.1180   ZX=    -0.2763
   XY=     2.0430   YY=    30.5949   ZY=     3.3377
   XZ=    -0.4202   YZ=     3.4979   ZZ=    37.5604
   Eigenvalues:    27.7622    32.1383    38.9849
     30  H    Isotropic =    32.6369   Anisotropy =    10.5531
   XX=    32.0822   YX=    -3.1736   ZX=    -0.9388
   XY=    -3.2738   YY=    35.7596   ZY=    -5.0657
   XZ=    -0.7170   YZ=    -5.4755   ZZ=    30.0687
   Eigenvalues:    25.9472    32.2911    39.6723
     31  H    Isotropic =    32.6294   Anisotropy =    14.8835
   XX=    38.5085   YX=     4.2616   ZX=    -4.4907
   XY=     4.1610   YY=    29.1061   ZY=    -3.3334
   XZ=    -4.5901   YZ=    -3.3375   ZZ=    30.2736
   Eigenvalues:    26.2897    29.0468    42.5517
 End of Minotr Frequency-dependent properties file   721 does not exist.
 End of Minotr Frequency-dependent properties file   722 does not exist.

 **********************************************************************

            Population analysis using the SCF density.

 **********************************************************************

 Orbital symmetries:
       Occupied  (A) (A) (A) (A) (A) (A) (A) (A) (A) (A) (A) (A)
                 (A) (A) (A) (A) (A) (A) (A) (A) (A) (A) (A) (A)
                 (A) (A) (A) (A) (A) (A) (A) (A) (A) (A) (A) (A)
                 (A) (A) (A) (A) (A) (A) (A) (A)
       Virtual   (A) (A) (A) (A) (A) (A) (A) (A) (A) (A) (A) (A)
                 (A) (A) (A) (A) (A) (A) (A) (A) (A) (A) (A) (A)
                 (A) (A) (A) (A) (A) (A) (A)
 The electronic state is 1-A.
 Alpha  occ. eigenvalues --  -20.23442 -11.08398 -11.05036 -11.04227 -11.03906
 Alpha  occ. eigenvalues --  -11.03507 -11.03492 -11.03415 -11.03381 -11.02977
 Alpha  occ. eigenvalues --  -11.02003  -1.27594  -1.07800  -1.03606  -0.96691
 Alpha  occ. eigenvalues --   -0.94372  -0.89471  -0.87471  -0.79542  -0.78420
 Alpha  occ. eigenvalues --   -0.72827  -0.68073  -0.64226  -0.61048  -0.58197
 Alpha  occ. eigenvalues --   -0.57623  -0.55793  -0.54088  -0.53341  -0.51769
 Alpha  occ. eigenvalues --   -0.50747  -0.50201  -0.49185  -0.48363  -0.46579
 Alpha  occ. eigenvalues --   -0.45383  -0.44416  -0.42879  -0.42059  -0.40140
 Alpha  occ. eigenvalues --   -0.39674  -0.39239  -0.35764  -0.32884
 Alpha virt. eigenvalues --    0.52929   0.56641   0.57112   0.59519   0.60782
 Alpha virt. eigenvalues --    0.61489   0.62193   0.64673   0.64808   0.66587
 Alpha virt. eigenvalues --    0.67907   0.68629   0.69487   0.70965   0.72304
 Alpha virt. eigenvalues --    0.73257   0.73729   0.74635   0.75680   0.75914
 Alpha virt. eigenvalues --    0.76117   0.78366   0.79096   0.79581   0.80748
 Alpha virt. eigenvalues --    0.81547   0.81977   0.83167   0.85848   0.86087
 Alpha virt. eigenvalues --    0.87688
          Condensed to atoms (all electrons):
              1          2          3          4          5          6
     1  C    4.741419   0.365464   0.000223   0.000756   0.000010  -0.024493
     2  C    0.365464   4.742889  -0.020069  -0.022709  -0.003106   0.362568
     3  C    0.000223  -0.020069   4.744326  -0.020916   0.354703  -0.006307
     4  C    0.000756  -0.022709  -0.020916   4.757177   0.360303   0.363695
     5  C    0.000010  -0.003106   0.354703   0.360303   4.796575  -0.021719
     6  C   -0.024493   0.362568  -0.006307   0.363695  -0.021719   4.754396
     7  C   -0.023257   0.359690   0.360001  -0.007667  -0.021365  -0.021745
     8  O   -0.000270  -0.000234   0.265558   0.000254  -0.019305  -0.000106
     9  C    0.000000   0.000008  -0.018500  -0.021744   0.357490   0.000663
    10  C    0.000000   0.000000  -0.001361   0.000680  -0.022897  -0.000005
    11  C    0.000000   0.000005  -0.002197  -0.001590  -0.019954   0.000005
    12  H    0.382741  -0.020179   0.000051   0.000013   0.000010  -0.002281
    13  H    0.382181  -0.020358   0.000011  -0.000019  -0.000001   0.001293
    14  H    0.381825  -0.020310  -0.000016   0.000014   0.000000  -0.002151
    15  H   -0.025657   0.383023   0.001225  -0.000282   0.000028  -0.024166
    16  H   -0.000015   0.001153   0.376813   0.001018  -0.024291   0.000043
    17  H   -0.000016   0.001284   0.001117   0.383121  -0.021412  -0.021431
    18  H    0.000009  -0.002607  -0.000294   0.381569  -0.021149  -0.023517
    19  H    0.000000   0.000025  -0.023993  -0.025045   0.379504  -0.000849
    20  H   -0.004707  -0.021484   0.000047  -0.023119  -0.002618   0.382067
    21  H   -0.000180  -0.021629   0.000038  -0.021340   0.001234   0.382952
    22  H   -0.005554  -0.021200  -0.021082   0.000064   0.001115   0.001064
    23  H    0.001284  -0.022107  -0.021689  -0.000144  -0.001349   0.000412
    24  H    0.000017  -0.000008  -0.040879   0.000001  -0.002825   0.000000
    25  H    0.000000  -0.000001   0.001042  -0.003356  -0.023008   0.000024
    26  H    0.000000   0.000000  -0.000589  -0.000001  -0.001416   0.000000
    27  H    0.000000   0.000000   0.000053   0.000024  -0.002559   0.000000
    28  H    0.000000   0.000000   0.000009  -0.000015   0.001189   0.000000
    29  H    0.000000   0.000000  -0.000488   0.000037  -0.001414  -0.000001
    30  H    0.000000   0.000005   0.000031  -0.000708  -0.001608  -0.000008
    31  H    0.000000   0.000000   0.000017   0.000018   0.001109   0.000000
              7          8          9         10         11         12
     1  C   -0.023257  -0.000270   0.000000   0.000000   0.000000   0.382741
     2  C    0.359690  -0.000234   0.000008   0.000000   0.000005  -0.020179
     3  C    0.360001   0.265558  -0.018500  -0.001361  -0.002197   0.000051
     4  C   -0.007667   0.000254  -0.021744   0.000680  -0.001590   0.000013
     5  C   -0.021365  -0.019305   0.357490  -0.022897  -0.019954   0.000010
     6  C   -0.021745  -0.000106   0.000663  -0.000005   0.000005  -0.002281
     7  C    4.763409  -0.019191   0.000415   0.000008  -0.000247  -0.001747
     8  O   -0.019191   7.853253   0.000255   0.000003   0.000001   0.000241
     9  C    0.000415   0.000255   4.742890   0.364058   0.364655   0.000000
    10  C    0.000008   0.000003   0.364058   4.746637  -0.026115   0.000000
    11  C   -0.000247   0.000001   0.364655  -0.026115   4.742864   0.000000
    12  H   -0.001747   0.000241   0.000000   0.000000   0.000000   0.617505
    13  H   -0.002359   0.000006   0.000000   0.000000   0.000000  -0.021618
    14  H    0.001261   0.000004   0.000000   0.000000   0.000000  -0.021628
    15  H   -0.025263  -0.000005   0.000001   0.000000   0.000001   0.001942
    16  H   -0.024069  -0.019713  -0.003911  -0.000651  -0.000567  -0.000004
    17  H    0.000062  -0.000011  -0.000752   0.000003   0.000042  -0.000001
    18  H   -0.000176  -0.000005  -0.003368   0.000015  -0.000757   0.000000
    19  H    0.001056  -0.003355  -0.023450  -0.003928   0.001143   0.000000
    20  H   -0.000031  -0.000016   0.000011   0.000000  -0.000001   0.000330
    21  H    0.001170   0.000003  -0.000014   0.000000   0.000000   0.000010
    22  H    0.382267  -0.000821  -0.000011   0.000000   0.000004   0.000054
    23  H    0.381544   0.000620   0.000023   0.000002  -0.000363   0.000000
    24  H    0.002645   0.257113   0.000012   0.000029   0.000001  -0.000005
    25  H   -0.000018  -0.000005   0.381837  -0.024749  -0.024492   0.000000
    26  H    0.000005  -0.000015  -0.020188   0.381994  -0.002264   0.000000
    27  H   -0.000001  -0.000004  -0.020276   0.382096   0.001314   0.000000
    28  H    0.000000   0.000000  -0.019810   0.382498  -0.002208   0.000000
    29  H   -0.000330   0.000001  -0.020390  -0.002316   0.382323   0.000000
    30  H   -0.000140   0.000000  -0.019635   0.001323   0.382513   0.000000
    31  H    0.000007   0.000000  -0.019945  -0.002419   0.382401   0.000000
             13         14         15         16         17         18
     1  C    0.382181   0.381825  -0.025657  -0.000015  -0.000016   0.000009
     2  C   -0.020358  -0.020310   0.383023   0.001153   0.001284  -0.002607
     3  C    0.000011  -0.000016   0.001225   0.376813   0.001117  -0.000294
     4  C   -0.000019   0.000014  -0.000282   0.001018   0.383121   0.381569
     5  C   -0.000001   0.000000   0.000028  -0.024291  -0.021412  -0.021149
     6  C    0.001293  -0.002151  -0.024166   0.000043  -0.021431  -0.023517
     7  C   -0.002359   0.001261  -0.025263  -0.024069   0.000062  -0.000176
     8  O    0.000006   0.000004  -0.000005  -0.019713  -0.000011  -0.000005
     9  C    0.000000   0.000000   0.000001  -0.003911  -0.000752  -0.003368
    10  C    0.000000   0.000000   0.000000  -0.000651   0.000003   0.000015
    11  C    0.000000   0.000000   0.000001  -0.000567   0.000042  -0.000757
    12  H   -0.021618  -0.021628   0.001942  -0.000004  -0.000001   0.000000
    13  H    0.635238  -0.021929  -0.002559  -0.000001   0.000000   0.000000
    14  H   -0.021929   0.635251  -0.002412   0.000001  -0.000001   0.000000
    15  H   -0.002559  -0.002412   0.659578  -0.000033  -0.000017   0.000333
    16  H   -0.000001   0.000001  -0.000033   0.659925  -0.000026  -0.000011
    17  H    0.000000  -0.000001  -0.000017  -0.000026   0.643004  -0.024148
    18  H    0.000000   0.000000   0.000333  -0.000011  -0.024148   0.646318
    19  H    0.000000   0.000000   0.000001   0.000839  -0.005149   0.001913
    20  H    0.000060  -0.000085   0.001875   0.000001  -0.001980   0.002002
    21  H   -0.000019   0.000167  -0.005433   0.000001  -0.002633  -0.001998
    22  H    0.000089   0.000079   0.000667  -0.002189   0.000001   0.000000
    23  H    0.000051  -0.000038  -0.006910  -0.002290   0.000006  -0.000373
    24  H   -0.000001   0.000000   0.000001  -0.004061  -0.000001   0.000000
    25  H    0.000000   0.000000   0.000000   0.000030   0.000141  -0.000038
    26  H    0.000000   0.000000   0.000000  -0.000341  -0.000001   0.000000
    27  H    0.000000   0.000000   0.000000   0.000030   0.000003   0.000000
    28  H    0.000000   0.000000   0.000000  -0.000013   0.000000  -0.000001
    29  H    0.000000   0.000000   0.000000  -0.000379  -0.000001   0.000033
    30  H    0.000000   0.000000   0.000001   0.000037   0.000023  -0.000415
    31  H    0.000000   0.000000   0.000000  -0.000013  -0.000002  -0.000020
             19         20         21         22         23         24
     1  C    0.000000  -0.004707  -0.000180  -0.005554   0.001284   0.000017
     2  C    0.000025  -0.021484  -0.021629  -0.021200  -0.022107  -0.000008
     3  C   -0.023993   0.000047   0.000038  -0.021082  -0.021689  -0.040879
     4  C   -0.025045  -0.023119  -0.021340   0.000064  -0.000144   0.000001
     5  C    0.379504  -0.002618   0.001234   0.001115  -0.001349  -0.002825
     6  C   -0.000849   0.382067   0.382952   0.001064   0.000412   0.000000
     7  C    0.001056  -0.000031   0.001170   0.382267   0.381544   0.002645
     8  O   -0.003355  -0.000016   0.000003  -0.000821   0.000620   0.257113
     9  C   -0.023450   0.000011  -0.000014  -0.000011   0.000023   0.000012
    10  C   -0.003928   0.000000   0.000000   0.000000   0.000002   0.000029
    11  C    0.001143  -0.000001   0.000000   0.000004  -0.000363   0.000001
    12  H    0.000000   0.000330   0.000010   0.000054   0.000000  -0.000005
    13  H    0.000000   0.000060  -0.000019   0.000089   0.000051  -0.000001
    14  H    0.000000  -0.000085   0.000167   0.000079  -0.000038   0.000000
    15  H    0.000001   0.001875  -0.005433   0.000667  -0.006910   0.000001
    16  H    0.000839   0.000001   0.000001  -0.002189  -0.002290  -0.004061
    17  H   -0.005149  -0.001980  -0.002633   0.000001   0.000006  -0.000001
    18  H    0.001913   0.002002  -0.001998   0.000000  -0.000373   0.000000
    19  H    0.656186   0.000337  -0.000005  -0.000038   0.000015   0.000561
    20  H    0.000337   0.636636  -0.023869  -0.000018  -0.000021   0.000021
    21  H   -0.000005  -0.023869   0.642724  -0.000025  -0.000025   0.000000
    22  H   -0.000038  -0.000018  -0.000025   0.628619  -0.022890   0.000050
    23  H    0.000015  -0.000021  -0.000025  -0.022890   0.642715  -0.000085
    24  H    0.000561   0.000021   0.000000   0.000050  -0.000085   0.613677
    25  H   -0.001490   0.000000  -0.000001   0.000000  -0.000003  -0.000002
    26  H    0.000002   0.000000   0.000000   0.000000   0.000001   0.000014
    27  H    0.000156   0.000000   0.000000   0.000000   0.000000  -0.000003
    28  H    0.000055   0.000000   0.000000   0.000000   0.000000  -0.000001
    29  H    0.000006   0.000000   0.000000   0.000016  -0.000193  -0.000001
    30  H    0.000006   0.000000   0.000001   0.000002  -0.000136   0.000000
    31  H   -0.000030   0.000000   0.000000   0.000000   0.000006   0.000000
             25         26         27         28         29         30
     1  C    0.000000   0.000000   0.000000   0.000000   0.000000   0.000000
     2  C   -0.000001   0.000000   0.000000   0.000000   0.000000   0.000005
     3  C    0.001042  -0.000589   0.000053   0.000009  -0.000488   0.000031
     4  C   -0.003356  -0.000001   0.000024  -0.000015   0.000037  -0.000708
     5  C   -0.023008  -0.001416  -0.002559   0.001189  -0.001414  -0.001608
     6  C    0.000024   0.000000   0.000000   0.000000  -0.000001  -0.000008
     7  C   -0.000018   0.000005  -0.000001   0.000000  -0.000330  -0.000140
     8  O   -0.000005  -0.000015  -0.000004   0.000000   0.000001   0.000000
     9  C    0.381837  -0.020188  -0.020276  -0.019810  -0.020390  -0.019635
    10  C   -0.024749   0.381994   0.382096   0.382498  -0.002316   0.001323
    11  C   -0.024492  -0.002264   0.001314  -0.002208   0.382323   0.382513
    12  H    0.000000   0.000000   0.000000   0.000000   0.000000   0.000000
    13  H    0.000000   0.000000   0.000000   0.000000   0.000000   0.000000
    14  H    0.000000   0.000000   0.000000   0.000000   0.000000   0.000000
    15  H    0.000000   0.000000   0.000000   0.000000   0.000000   0.000001
    16  H    0.000030  -0.000341   0.000030  -0.000013  -0.000379   0.000037
    17  H    0.000141  -0.000001   0.000003   0.000000  -0.000001   0.000023
    18  H   -0.000038   0.000000   0.000000  -0.000001   0.000033  -0.000415
    19  H   -0.001490   0.000002   0.000156   0.000055   0.000006   0.000006
    20  H    0.000000   0.000000   0.000000   0.000000   0.000000   0.000000
    21  H   -0.000001   0.000000   0.000000   0.000000   0.000000   0.000001
    22  H    0.000000   0.000000   0.000000   0.000000   0.000016   0.000002
    23  H   -0.000003   0.000001   0.000000   0.000000  -0.000193  -0.000136
    24  H   -0.000002   0.000014  -0.000003  -0.000001  -0.000001   0.000000
    25  H    0.650629   0.001912  -0.002125  -0.002744   0.001896  -0.002014
    26  H    0.001912   0.633253  -0.021967  -0.021907   0.000347   0.000011
    27  H   -0.002125  -0.021967   0.633653  -0.021667   0.000013  -0.000037
    28  H   -0.002744  -0.021907  -0.021667   0.629073  -0.000016   0.000025
    29  H    0.001896   0.000347   0.000013  -0.000016   0.630916  -0.021827
    30  H   -0.002014   0.000011  -0.000037   0.000025  -0.021827   0.629498
    31  H   -0.002699  -0.000011   0.000029   0.000104  -0.021990  -0.021911
             31
     1  C    0.000000
     2  C    0.000000
     3  C    0.000017
     4  C    0.000018
     5  C    0.001109
     6  C    0.000000
     7  C    0.000007
     8  O    0.000000
     9  C   -0.019945
    10  C   -0.002419
    11  C    0.382401
    12  H    0.000000
    13  H    0.000000
    14  H    0.000000
    15  H    0.000000
    16  H   -0.000013
    17  H   -0.000002
    18  H   -0.000020
    19  H   -0.000030
    20  H    0.000000
    21  H    0.000000
    22  H    0.000000
    23  H    0.000006
    24  H    0.000000
    25  H   -0.002699
    26  H   -0.000011
    27  H    0.000029
    28  H    0.000104
    29  H   -0.021990
    30  H   -0.021911
    31  H    0.629711
 Mulliken atomic charges:
              1
     1  C   -0.171780
     2  C   -0.020112
     3  C    0.073115
     4  C   -0.100089
     5  C   -0.041276
     6  C   -0.100404
     7  C   -0.105935
     8  O   -0.314258
     9  C   -0.020325
    10  C   -0.174907
    11  C   -0.176518
    12  H    0.064568
    13  H    0.049935
    14  H    0.049968
    15  H    0.044059
    16  H    0.042688
    17  H    0.048778
    18  H    0.046685
    19  H    0.045526
    20  H    0.054562
    21  H    0.048871
    22  H    0.059737
    23  H    0.051938
    24  H    0.173730
    25  H    0.049231
    26  H    0.051161
    27  H    0.051266
    28  H    0.055429
    29  H    0.053756
    30  H    0.054964
    31  H    0.055639
 Sum of Mulliken atomic charges =   0.00000
 Mulliken charges with hydrogens summed into heavy atoms:
              1
     1  C   -0.007310
     2  C    0.023947
     3  C    0.115804
     4  C   -0.004626
     5  C    0.004250
     6  C    0.003028
     7  C    0.005739
     8  O   -0.140528
     9  C    0.028906
    10  C   -0.017051
    11  C   -0.012159
 Sum of Mulliken charges with hydrogens summed into heavy atoms =   0.00000
 Electronic spatial extent (au):  <R**2>=           2045.8862
 Charge=              0.0000 electrons
 Dipole moment (field-independent basis, Debye):
    X=             -1.3900    Y=             -0.3783    Z=             -0.0210  Tot=              1.4407
 Quadrupole moment (field-independent basis, Debye-Ang):
   XX=            -69.1009   YY=            -67.7079   ZZ=            -66.6474
   XY=             -2.8095   XZ=              0.9784   YZ=             -0.5977
 Traceless Quadrupole moment (field-independent basis, Debye-Ang):
   XX=             -1.2822   YY=              0.1108   ZZ=              1.1713
   XY=             -2.8095   XZ=              0.9784   YZ=             -0.5977
 Octapole moment (field-independent basis, Debye-Ang**2):
  XXX=             -0.8649  YYY=             12.0890  ZZZ=             -4.7935  XYY=             -4.1159
  XXY=             -0.7328  XXZ=              0.0164  XZZ=              1.2560  YZZ=              6.4192
  YYZ=             -3.1269  XYZ=              1.3768
 Hexadecapole moment (field-independent basis, Debye-Ang**3):
 XXXX=          -1774.6431 YYYY=           -473.0774 ZZZZ=           -364.3505 XXXY=             10.4721
 XXXZ=             -5.8458 YYYX=             -7.5457 YYYZ=            -14.6033 ZZZX=              3.9790
 ZZZY=             -6.4289 XXYY=           -380.1814 XXZZ=           -355.1334 YYZZ=           -133.9573
 XXYZ=              2.1538 YYXZ=              2.2214 ZZXY=              1.6009
 N-N= 6.997138402263D+02 E-N=-2.471536046996D+03  KE= 4.555486912593D+02
 ******************************Gaussian NBO Version 3.1******************************
             N A T U R A L   A T O M I C   O R B I T A L   A N D
          N A T U R A L   B O N D   O R B I T A L   A N A L Y S I S
 ******************************Gaussian NBO Version 3.1******************************
       /RESON  / : Allow strongly delocalized NBO set
       /NLMO   / : Form Natural Localized Molecular Orbitals
       /NMR /    : Analyze NMR Sheilding Tensor 

 Analyzing the SCF density

 Job title: comment                                                         

 Storage needed:     19864 in NPA,     23691 in NBO,     45933 in NLMO (  33549317 available)


 NATURAL POPULATIONS:  Natural atomic orbital occupancies 
                                                          
   NAO  Atom  No  lang   Type(AO)    Occupancy      Energy
 ----------------------------------------------------------
     1    C    1  S      Cor( 1S)     1.99997     -10.95359
     2    C    1  S      Val( 2S)     1.08094      -0.17092
     3    C    1  px     Val( 2p)     0.99718       0.09915
     4    C    1  py     Val( 2p)     1.02176       0.09611
     5    C    1  pz     Val( 2p)     1.02751       0.09551

     6    C    2  S      Cor( 1S)     1.99996     -10.98231
     7    C    2  S      Val( 2S)     1.08115      -0.18566
     8    C    2  px     Val( 2p)     0.95553       0.11759
     9    C    2  py     Val( 2p)     0.97882       0.11125
    10    C    2  pz     Val( 2p)     0.96590       0.11832

    11    C    3  S      Cor( 1S)     1.99989     -11.03317
    12    C    3  S      Val( 2S)     1.09035      -0.21688
    13    C    3  px     Val( 2p)     0.94369       0.09676
    14    C    3  py     Val( 2p)     0.90143       0.10488
    15    C    3  pz     Val( 2p)     0.92273       0.10232

    16    C    4  S      Cor( 1S)     1.99996     -10.97207
    17    C    4  S      Val( 2S)     1.08407      -0.18621
    18    C    4  px     Val( 2p)     0.97823       0.09950
    19    C    4  py     Val( 2p)     0.98279       0.10124
    20    C    4  pz     Val( 2p)     1.01723       0.09363

    21    C    5  S      Cor( 1S)     1.99995     -10.98796
    22    C    5  S      Val( 2S)     1.10655      -0.21440
    23    C    5  px     Val( 2p)     0.95720       0.10458
    24    C    5  py     Val( 2p)     0.97291       0.10079
    25    C    5  pz     Val( 2p)     0.98352       0.09811

    26    C    6  S      Cor( 1S)     1.99996     -10.96767
    27    C    6  S      Val( 2S)     1.08290      -0.18073
    28    C    6  px     Val( 2p)     0.97578       0.10631
    29    C    6  py     Val( 2p)     1.01679       0.09743
    30    C    6  pz     Val( 2p)     0.98862       0.10334

    31    C    7  S      Cor( 1S)     1.99995     -10.97402
    32    C    7  S      Val( 2S)     1.09145      -0.19372
    33    C    7  px     Val( 2p)     0.98964       0.09596
    34    C    7  py     Val( 2p)     1.00725       0.09449
    35    C    7  pz     Val( 2p)     0.99347       0.09248

    36    O    8  S      Cor( 1S)     1.99999     -20.13871
    37    O    8  S      Val( 2S)     1.75175      -0.99851
    38    O    8  px     Val( 2p)     1.49535      -0.18786
    39    O    8  py     Val( 2p)     1.48389      -0.16530
    40    O    8  pz     Val( 2p)     1.60462      -0.21496

    41    C    9  S      Cor( 1S)     1.99996     -10.99436
    42    C    9  S      Val( 2S)     1.08528      -0.20006
    43    C    9  px     Val( 2p)     0.95657       0.10489
    44    C    9  py     Val( 2p)     0.97216       0.10280
    45    C    9  pz     Val( 2p)     0.96583       0.10689

    46    C   10  S      Cor( 1S)     1.99997     -10.96869
    47    C   10  S      Val( 2S)     1.08149      -0.18730
    48    C   10  px     Val( 2p)     1.01727       0.07814
    49    C   10  py     Val( 2p)     1.00668       0.08294
    50    C   10  pz     Val( 2p)     1.02503       0.08078

    51    C   11  S      Cor( 1S)     1.99997     -10.96776
    52    C   11  S      Val( 2S)     1.07971      -0.18458
    53    C   11  px     Val( 2p)     1.03152       0.07792
    54    C   11  py     Val( 2p)     1.02506       0.08133
    55    C   11  pz     Val( 2p)     0.99633       0.08570

    56    H   12  S      Val( 1S)     0.95407       0.09645

    57    H   13  S      Val( 1S)     0.96707       0.08256

    58    H   14  S      Val( 1S)     0.96701       0.08150

    59    H   15  S      Val( 1S)     0.98028       0.07049

    60    H   16  S      Val( 1S)     0.99314       0.05123

    61    H   17  S      Val( 1S)     0.97192       0.07125

    62    H   18  S      Val( 1S)     0.97454       0.07250

    63    H   19  S      Val( 1S)     0.97901       0.06016

    64    H   20  S      Val( 1S)     0.96674       0.08217

    65    H   21  S      Val( 1S)     0.97143       0.07497

    66    H   22  S      Val( 1S)     0.96145       0.07855

    67    H   23  S      Val( 1S)     0.96844       0.07017

    68    H   24  S      Val( 1S)     0.81391       0.07465

    69    H   25  S      Val( 1S)     0.97605       0.06333

    70    H   26  S      Val( 1S)     0.96619       0.06889

    71    H   27  S      Val( 1S)     0.96594       0.06838

    72    H   28  S      Val( 1S)     0.96190       0.07145

    73    H   29  S      Val( 1S)     0.96356       0.07237

    74    H   30  S      Val( 1S)     0.96248       0.07513

    75    H   31  S      Val( 1S)     0.96136       0.07225


 Summary of Natural Population Analysis:                  
                                                          
                                       Natural Population 
                Natural  -----------------------------------------------
    Atom  No    Charge         Core      Valence    Rydberg      Total
 -----------------------------------------------------------------------
      C    1   -0.12736      1.99997     4.12738    0.00000     6.12736
      C    2    0.01862      1.99996     3.98141    0.00000     5.98138
      C    3    0.14191      1.99989     3.85820    0.00000     5.85809
      C    4   -0.06228      1.99996     4.06232    0.00000     6.06228
      C    5   -0.02014      1.99995     4.02019    0.00000     6.02014
      C    6   -0.06406      1.99996     4.06410    0.00000     6.06406
      C    7   -0.08177      1.99995     4.08182    0.00000     6.08177
      O    8   -0.33560      1.99999     6.33560    0.00000     8.33560
      C    9    0.02020      1.99996     3.97984    0.00000     5.97980
      C   10   -0.13043      1.99997     4.13046    0.00000     6.13043
      C   11   -0.13259      1.99997     4.13262    0.00000     6.13259
      H   12    0.04593      0.00000     0.95407    0.00000     0.95407
      H   13    0.03293      0.00000     0.96707    0.00000     0.96707
      H   14    0.03299      0.00000     0.96701    0.00000     0.96701
      H   15    0.01972      0.00000     0.98028    0.00000     0.98028
      H   16    0.00686      0.00000     0.99314    0.00000     0.99314
      H   17    0.02808      0.00000     0.97192    0.00000     0.97192
      H   18    0.02546      0.00000     0.97454    0.00000     0.97454
      H   19    0.02099      0.00000     0.97901    0.00000     0.97901
      H   20    0.03326      0.00000     0.96674    0.00000     0.96674
      H   21    0.02857      0.00000     0.97143    0.00000     0.97143
      H   22    0.03855      0.00000     0.96145    0.00000     0.96145
      H   23    0.03156      0.00000     0.96844    0.00000     0.96844
      H   24    0.18609      0.00000     0.81391    0.00000     0.81391
      H   25    0.02395      0.00000     0.97605    0.00000     0.97605
      H   26    0.03381      0.00000     0.96619    0.00000     0.96619
      H   27    0.03406      0.00000     0.96594    0.00000     0.96594
      H   28    0.03810      0.00000     0.96190    0.00000     0.96190
      H   29    0.03644      0.00000     0.96356    0.00000     0.96356
      H   30    0.03752      0.00000     0.96248    0.00000     0.96248
      H   31    0.03864      0.00000     0.96136    0.00000     0.96136
 =======================================================================
   * Total *    0.00000     21.99955    66.00045    0.00000    88.00000

                                 Natural Population      
 --------------------------------------------------------
   Core                      21.99955 ( 99.9979% of  22)
   Valence                   66.00045 (100.0007% of  66)
   Natural Minimal Basis     88.00000 (100.0000% of  88)
   Natural Rydberg Basis      0.00000 (  0.0000% of  88)
 --------------------------------------------------------

    Atom  No          Natural Electron Configuration
 ----------------------------------------------------------------------------
      C    1      [core]2S( 1.08)2p( 3.05)
      C    2      [core]2S( 1.08)2p( 2.90)
      C    3      [core]2S( 1.09)2p( 2.77)
      C    4      [core]2S( 1.08)2p( 2.98)
      C    5      [core]2S( 1.11)2p( 2.91)
      C    6      [core]2S( 1.08)2p( 2.98)
      C    7      [core]2S( 1.09)2p( 2.99)
      O    8      [core]2S( 1.75)2p( 4.58)
      C    9      [core]2S( 1.09)2p( 2.89)
      C   10      [core]2S( 1.08)2p( 3.05)
      C   11      [core]2S( 1.08)2p( 3.05)
      H   12            1S( 0.95)
      H   13            1S( 0.97)
      H   14            1S( 0.97)
      H   15            1S( 0.98)
      H   16            1S( 0.99)
      H   17            1S( 0.97)
      H   18            1S( 0.97)
      H   19            1S( 0.98)
      H   20            1S( 0.97)
      H   21            1S( 0.97)
      H   22            1S( 0.96)
      H   23            1S( 0.97)
      H   24            1S( 0.81)
      H   25            1S( 0.98)
      H   26            1S( 0.97)
      H   27            1S( 0.97)
      H   28            1S( 0.96)
      H   29            1S( 0.96)
      H   30            1S( 0.96)
      H   31            1S( 0.96)


 NATURAL BOND ORBITAL ANALYSIS:

                       Occupancies       Lewis Structure    Low   High
           Occ.    -------------------  -----------------   occ   occ
  Cycle   Thresh.   Lewis   Non-Lewis     CR  BD  3C  LP    (L)   (NL)   Dev
 =============================================================================
   1(1)    1.90    87.64465   0.35535     11  31   0   2     0      0    0.02
 -----------------------------------------------------------------------------

 Structure accepted: No low occupancy Lewis orbitals

 --------------------------------------------------------
   Core                     21.99954 ( 99.998% of  22)
   Valence Lewis            65.64511 ( 99.462% of  66)
  ==================       ============================
   Total Lewis              87.64465 ( 99.596% of  88)
  -----------------------------------------------------
   Valence non-Lewis         0.35535 (  0.404% of  88)
   Rydberg non-Lewis         0.00000 (  0.000% of  88)
  ==================       ============================
   Total non-Lewis           0.35535 (  0.404% of  88)
 --------------------------------------------------------


       (Occupancy)   Bond orbital/ Coefficients/ Hybrids
 ---------------------------------------------------------------------------------
     1. (1.99060) BD ( 1) C   1 - C   2  
                ( 50.71%)   0.7121* C   1 s( 25.75%)p 2.88( 74.25%)
                                            0.0001  0.5074 -0.7335 -0.4388  0.1093
                ( 49.29%)   0.7021* C   2 s( 25.18%)p 2.97( 74.82%)
                                            0.0000  0.5018  0.7143  0.4722 -0.1227
     2. (1.99539) BD ( 1) C   1 - H  12  
                ( 52.35%)   0.7235* C   1 s( 24.96%)p 3.01( 75.04%)
                                            0.0000  0.4996 -0.1503  0.7117 -0.4703
                ( 47.65%)   0.6903* H  12 s(100.00%)
                                            1.0000
     3. (1.99481) BD ( 1) C   1 - H  13  
                ( 51.65%)   0.7187* C   1 s( 24.65%)p 3.06( 75.35%)
                                            0.0000  0.4965  0.3211  0.2301  0.7730
                ( 48.35%)   0.6953* H  13 s(100.00%)
                                            1.0000
     4. (1.99493) BD ( 1) C   1 - H  14  
                ( 51.66%)   0.7187* C   1 s( 24.64%)p 3.06( 75.36%)
                                            0.0000  0.4964  0.5799 -0.4980 -0.4115
                ( 48.34%)   0.6953* H  14 s(100.00%)
                                            1.0000
     5. (1.98524) BD ( 1) C   2 - C   6  
                ( 49.66%)   0.7047* C   2 s( 25.34%)p 2.95( 74.66%)
                                            0.0000  0.5034 -0.3090 -0.2654 -0.7620
                ( 50.34%)   0.7095* C   6 s( 25.29%)p 2.95( 74.71%)
                                            0.0001  0.5029  0.2837  0.2983  0.7600
     6. (1.98517) BD ( 1) C   2 - C   7  
                ( 49.22%)   0.7016* C   2 s( 25.28%)p 2.96( 74.72%)
                                            0.0000  0.5028 -0.5962  0.4738  0.4090
                ( 50.78%)   0.7126* C   7 s( 25.43%)p 2.93( 74.57%)
                                            0.0001  0.5043  0.5814 -0.4331 -0.4691
     7. (1.98613) BD ( 1) C   2 - H  15  
                ( 50.90%)   0.7134* C   2 s( 24.20%)p 3.13( 75.80%)
                                            0.0000  0.4919  0.1971 -0.6943  0.4869
                ( 49.10%)   0.7007* H  15 s(100.00%)
                                            1.0000
     8. (1.98337) BD ( 1) C   3 - C   5  
                ( 49.93%)   0.7066* C   3 s( 26.01%)p 2.85( 73.99%)
                                            0.0001  0.5100 -0.3994 -0.5662 -0.5097
                ( 50.07%)   0.7076* C   5 s( 25.62%)p 2.90( 74.38%)
                                            0.0000  0.5061  0.3914  0.5298  0.5568
     9. (1.98698) BD ( 1) C   3 - C   7  
                ( 50.11%)   0.7079* C   3 s( 26.53%)p 2.77( 73.47%)
                                            0.0000  0.5151  0.6034 -0.3857  0.4710
                ( 49.89%)   0.7063* C   7 s( 25.13%)p 2.98( 74.87%)
                                            0.0001  0.5013 -0.5799  0.3722 -0.5234
    10. (1.98862) BD ( 1) C   3 - O   8  
                ( 40.96%)   0.6400* C   3 s( 21.70%)p 3.61( 78.30%)
                                            0.0000  0.4658  0.3904  0.6061 -0.5132
                ( 59.04%)   0.7684* O   8 s( 16.26%)p 5.15( 83.74%)
                                            0.0000  0.4032 -0.4726 -0.6217  0.4770
    11. (1.98782) BD ( 1) C   3 - H  16  
                ( 50.61%)   0.7114* C   3 s( 25.77%)p 2.88( 74.23%)
                                            0.0000  0.5076 -0.5692  0.4041  0.5050
                ( 49.39%)   0.7028* H  16 s(100.00%)
                                            1.0000
    12. (1.98497) BD ( 1) C   4 - C   5  
                ( 50.22%)   0.7087* C   4 s( 25.17%)p 2.97( 74.83%)
                                            0.0001  0.5017 -0.4489  0.7242  0.1493
                ( 49.78%)   0.7056* C   5 s( 25.00%)p 3.00( 75.00%)
                                            0.0000  0.5000  0.4614 -0.7278 -0.0864
    13. (1.98936) BD ( 1) C   4 - C   6  
                ( 50.21%)   0.7086* C   4 s( 25.24%)p 2.96( 74.76%)
                                            0.0000  0.5024  0.8438  0.1839 -0.0431
                ( 49.79%)   0.7056* C   6 s( 25.07%)p 2.99( 74.93%)
                                            0.0000  0.5007 -0.8472 -0.1700  0.0517
    14. (1.99024) BD ( 1) C   4 - H  17  
                ( 51.37%)   0.7167* C   4 s( 24.81%)p 3.03( 75.19%)
                                            0.0000  0.4981 -0.2584 -0.3507 -0.7498
                ( 48.63%)   0.6974* H  17 s(100.00%)
                                            1.0000
    15. (1.99032) BD ( 1) C   4 - H  18  
                ( 51.32%)   0.7164* C   4 s( 24.78%)p 3.03( 75.22%)
                                            0.0000  0.4978 -0.1405 -0.5646  0.6432
                ( 48.68%)   0.6977* H  18 s(100.00%)
                                            1.0000
    16. (1.97947) BD ( 1) C   5 - C   9  
                ( 49.92%)   0.7066* C   5 s( 25.17%)p 2.97( 74.83%)
                                            0.0001  0.5017 -0.7938 -0.1924  0.2850
                ( 50.08%)   0.7076* C   9 s( 25.35%)p 2.94( 74.65%)
                                            0.0001  0.5035  0.8153  0.2053 -0.1993
    17. (1.98224) BD ( 1) C   5 - H  19  
                ( 50.91%)   0.7135* C   5 s( 24.22%)p 3.13( 75.78%)
                                            0.0000  0.4921 -0.0621  0.3907 -0.7754
                ( 49.09%)   0.7007* H  19 s(100.00%)
                                            1.0000
    18. (1.99095) BD ( 1) C   6 - H  20  
                ( 51.71%)   0.7191* C   6 s( 24.83%)p 3.03( 75.17%)
                                            0.0000  0.4983  0.1375  0.5957 -0.6148
                ( 48.29%)   0.6949* H  20 s(100.00%)
                                            1.0000
    19. (1.99023) BD ( 1) C   6 - H  21  
                ( 51.39%)   0.7169* C   6 s( 24.81%)p 3.03( 75.19%)
                                            0.0000  0.4981  0.4277 -0.7261 -0.2042
                ( 48.61%)   0.6972* H  21 s(100.00%)
                                            1.0000
    20. (1.98911) BD ( 1) C   7 - H  22  
                ( 51.89%)   0.7203* C   7 s( 25.13%)p 2.98( 74.87%)
                                            0.0000  0.5013  0.3977  0.6071  0.4712
                ( 48.11%)   0.6936* H  22 s(100.00%)
                                            1.0000
    21. (1.98867) BD ( 1) C   7 - H  23  
                ( 51.49%)   0.7175* C   7 s( 24.32%)p 3.11( 75.68%)
                                            0.0000  0.4931 -0.4093 -0.5526  0.5329
                ( 48.51%)   0.6965* H  23 s(100.00%)
                                            1.0000
    22. (1.98946) BD ( 1) O   8 - H  24  
                ( 59.32%)   0.7702* O   8 s( 16.70%)p 4.99( 83.30%)
                                            0.0000 -0.4086  0.6690 -0.4296  0.4483
                ( 40.68%)   0.6378* H  24 s(100.00%)
                                           -1.0000
    23. (1.98942) BD ( 1) C   9 - C  10  
                ( 48.86%)   0.6990* C   9 s( 24.76%)p 3.04( 75.24%)
                                            0.0000  0.4976 -0.5066  0.6974 -0.0969
                ( 51.14%)   0.7152* C  10 s( 25.79%)p 2.88( 74.21%)
                                            0.0001  0.5078  0.5323 -0.6677  0.1142
    24. (1.99001) BD ( 1) C   9 - C  11  
                ( 49.05%)   0.7003* C   9 s( 25.41%)p 2.94( 74.59%)
                                            0.0000  0.5041 -0.0419 -0.2766  0.8171
                ( 50.95%)   0.7138* C  11 s( 25.87%)p 2.87( 74.13%)
                                            0.0001  0.5086  0.0872  0.2961 -0.8038
    25. (1.98416) BD ( 1) C   9 - H  25  
                ( 51.09%)   0.7148* C   9 s( 24.49%)p 3.08( 75.51%)
                                            0.0000  0.4948 -0.2774 -0.6285 -0.5322
                ( 48.91%)   0.6994* H  25 s(100.00%)
                                            1.0000
    26. (1.99502) BD ( 1) C  10 - H  26  
                ( 51.74%)   0.7193* C  10 s( 24.88%)p 3.02( 75.12%)
                                            0.0000  0.4988  0.2176  0.6448  0.5367
                ( 48.26%)   0.6947* H  26 s(100.00%)
                                            1.0000
    27. (1.99506) BD ( 1) C  10 - H  27  
                ( 51.72%)   0.7192* C  10 s( 24.66%)p 3.06( 75.34%)
                                            0.0000  0.4966  0.0536  0.2801 -0.8198
                ( 48.28%)   0.6948* H  27 s(100.00%)
                                            1.0000
    28. (1.99480) BD ( 1) C  10 - H  28  
                ( 51.91%)   0.7205* C  10 s( 24.67%)p 3.05( 75.33%)
                                            0.0000  0.4967 -0.8164 -0.2451  0.1637
                ( 48.09%)   0.6935* H  28 s(100.00%)
                                            1.0000
    29. (1.99496) BD ( 1) C  11 - H  29  
                ( 51.87%)   0.7202* C  11 s( 24.82%)p 3.03( 75.18%)
                                            0.0000  0.4982  0.2293  0.6149  0.5667
                ( 48.13%)   0.6938* H  29 s(100.00%)
                                            1.0000
    30. (1.99403) BD ( 1) C  11 - H  30  
                ( 51.90%)   0.7204* C  11 s( 24.81%)p 3.03( 75.19%)
                                            0.0000  0.4981  0.5044 -0.6961  0.1134
                ( 48.10%)   0.6936* H  30 s(100.00%)
                                            1.0000
    31. (1.99415) BD ( 1) C  11 - H  31  
                ( 51.92%)   0.7205* C  11 s( 24.51%)p 3.08( 75.49%)
                                            0.0000  0.4950 -0.8279 -0.2226  0.1414
                ( 48.08%)   0.6934* H  31 s(100.00%)
                                            1.0000
    32. (1.99997) CR ( 1) C   1           s(100.00%)
                                            1.0000  0.0000  0.0001  0.0000  0.0000
    33. (1.99996) CR ( 1) C   2           s(100.00%)
                                            1.0000  0.0000  0.0000  0.0000  0.0000
    34. (1.99989) CR ( 1) C   3           s(100.00%)
                                            1.0000  0.0000  0.0001  0.0000  0.0000
    35. (1.99996) CR ( 1) C   4           s(100.00%)
                                            1.0000  0.0000  0.0000 -0.0001  0.0000
    36. (1.99995) CR ( 1) C   5           s(100.00%)
                                            1.0000  0.0000  0.0000  0.0000 -0.0001
    37. (1.99996) CR ( 1) C   6           s(100.00%)
                                            1.0000  0.0000  0.0000  0.0000 -0.0001
    38. (1.99995) CR ( 1) C   7           s(100.00%)
                                            1.0000 -0.0001  0.0000  0.0000  0.0001
    39. (1.99999) CR ( 1) O   8           s(100.00%)
                                            1.0000  0.0000  0.0000  0.0000  0.0000
    40. (1.99996) CR ( 1) C   9           s(100.00%)
                                            1.0000  0.0000 -0.0001  0.0000  0.0000
    41. (1.99997) CR ( 1) C  10           s(100.00%)
                                            1.0000  0.0000 -0.0001  0.0000  0.0000
    42. (1.99997) CR ( 1) C  11           s(100.00%)
                                            1.0000  0.0000  0.0000  0.0000  0.0001
    43. (1.99322) LP ( 1) O   8           s( 66.92%)p 0.49( 33.08%)
                                            0.0000  0.8181  0.5699  0.0643 -0.0431
    44. (1.97622) LP ( 2) O   8           s(  0.12%)p99.99( 99.88%)
                                            0.0000  0.0345 -0.0661  0.6518  0.7547
    45. (0.00960) BD*( 1) C   1 - C   2  
                ( 49.29%)   0.7021* C   1 s( 25.75%)p 2.88( 74.25%)
                                           -0.0001 -0.5074  0.7335  0.4388 -0.1093
                ( 50.71%)  -0.7121* C   2 s( 25.18%)p 2.97( 74.82%)
                                            0.0000 -0.5018 -0.7143 -0.4722  0.1227
    46. (0.00613) BD*( 1) C   1 - H  12  
                ( 47.65%)   0.6903* C   1 s( 24.96%)p 3.01( 75.04%)
                                            0.0000 -0.4996  0.1503 -0.7117  0.4703
                ( 52.35%)  -0.7235* H  12 s(100.00%)
                                           -1.0000
    47. (0.00511) BD*( 1) C   1 - H  13  
                ( 48.35%)   0.6953* C   1 s( 24.65%)p 3.06( 75.35%)
                                            0.0000 -0.4965 -0.3211 -0.2301 -0.7730
                ( 51.65%)  -0.7187* H  13 s(100.00%)
                                           -1.0000
    48. (0.00501) BD*( 1) C   1 - H  14  
                ( 48.34%)   0.6953* C   1 s( 24.64%)p 3.06( 75.36%)
                                            0.0000 -0.4964 -0.5799  0.4980  0.4115
                ( 51.66%)  -0.7187* H  14 s(100.00%)
                                           -1.0000
    49. (0.01582) BD*( 1) C   2 - C   6  
                ( 50.34%)   0.7095* C   2 s( 25.34%)p 2.95( 74.66%)
                                            0.0000  0.5034 -0.3090 -0.2654 -0.7620
                ( 49.66%)  -0.7047* C   6 s( 25.29%)p 2.95( 74.71%)
                                            0.0001  0.5029  0.2837  0.2983  0.7600
    50. (0.01719) BD*( 1) C   2 - C   7  
                ( 50.78%)   0.7126* C   2 s( 25.28%)p 2.96( 74.72%)
                                            0.0000  0.5028 -0.5962  0.4738  0.4090
                ( 49.22%)  -0.7016* C   7 s( 25.43%)p 2.93( 74.57%)
                                            0.0001  0.5043  0.5814 -0.4331 -0.4691
    51. (0.00982) BD*( 1) C   2 - H  15  
                ( 49.10%)   0.7007* C   2 s( 24.20%)p 3.13( 75.80%)
                                            0.0000 -0.4919 -0.1971  0.6943 -0.4869
                ( 50.90%)  -0.7134* H  15 s(100.00%)
                                           -1.0000
    52. (0.03432) BD*( 1) C   3 - C   5  
                ( 50.07%)   0.7076* C   3 s( 26.01%)p 2.85( 73.99%)
                                            0.0001  0.5100 -0.3994 -0.5662 -0.5097
                ( 49.93%)  -0.7066* C   5 s( 25.62%)p 2.90( 74.38%)
                                            0.0000  0.5061  0.3914  0.5298  0.5568
    53. (0.02080) BD*( 1) C   3 - C   7  
                ( 49.89%)   0.7063* C   3 s( 26.53%)p 2.77( 73.47%)
                                            0.0000 -0.5151 -0.6034  0.3857 -0.4710
                ( 50.11%)  -0.7079* C   7 s( 25.13%)p 2.98( 74.87%)
                                           -0.0001 -0.5013  0.5799 -0.3722  0.5234
    54. (0.02200) BD*( 1) C   3 - O   8  
                ( 59.04%)   0.7684* C   3 s( 21.70%)p 3.61( 78.30%)
                                            0.0000  0.4658  0.3904  0.6061 -0.5132
                ( 40.96%)  -0.6400* O   8 s( 16.26%)p 5.15( 83.74%)
                                            0.0000  0.4032 -0.4726 -0.6217  0.4770
    55. (0.02238) BD*( 1) C   3 - H  16  
                ( 49.39%)   0.7028* C   3 s( 25.77%)p 2.88( 74.23%)
                                            0.0000 -0.5076  0.5692 -0.4041 -0.5050
                ( 50.61%)  -0.7114* H  16 s(100.00%)
                                           -1.0000
    56. (0.01625) BD*( 1) C   4 - C   5  
                ( 49.78%)   0.7056* C   4 s( 25.17%)p 2.97( 74.83%)
                                           -0.0001 -0.5017  0.4489 -0.7242 -0.1493
                ( 50.22%)  -0.7087* C   5 s( 25.00%)p 3.00( 75.00%)
                                            0.0000 -0.5000 -0.4614  0.7278  0.0864
    57. (0.01070) BD*( 1) C   4 - C   6  
                ( 49.79%)   0.7056* C   4 s( 25.24%)p 2.96( 74.76%)
                                            0.0000 -0.5024 -0.8438 -0.1839  0.0431
                ( 50.21%)  -0.7086* C   6 s( 25.07%)p 2.99( 74.93%)
                                            0.0000 -0.5007  0.8472  0.1700 -0.0517
    58. (0.00789) BD*( 1) C   4 - H  17  
                ( 48.63%)   0.6974* C   4 s( 24.81%)p 3.03( 75.19%)
                                            0.0000 -0.4981  0.2584  0.3507  0.7498
                ( 51.37%)  -0.7167* H  17 s(100.00%)
                                           -1.0000
    59. (0.01121) BD*( 1) C   4 - H  18  
                ( 48.68%)   0.6977* C   4 s( 24.78%)p 3.03( 75.22%)
                                            0.0000 -0.4978  0.1405  0.5646 -0.6432
                ( 51.32%)  -0.7164* H  18 s(100.00%)
                                           -1.0000
    60. (0.02147) BD*( 1) C   5 - C   9  
                ( 50.08%)   0.7076* C   5 s( 25.17%)p 2.97( 74.83%)
                                            0.0001  0.5017 -0.7938 -0.1924  0.2850
                ( 49.92%)  -0.7066* C   9 s( 25.35%)p 2.94( 74.65%)
                                            0.0001  0.5035  0.8153  0.2053 -0.1993
    61. (0.01147) BD*( 1) C   5 - H  19  
                ( 49.09%)   0.7007* C   5 s( 24.22%)p 3.13( 75.78%)
                                            0.0000 -0.4921  0.0621 -0.3907  0.7754
                ( 50.91%)  -0.7135* H  19 s(100.00%)
                                           -1.0000
    62. (0.01035) BD*( 1) C   6 - H  20  
                ( 48.29%)   0.6949* C   6 s( 24.83%)p 3.03( 75.17%)
                                            0.0000 -0.4983 -0.1375 -0.5957  0.6148
                ( 51.71%)  -0.7191* H  20 s(100.00%)
                                           -1.0000
    63. (0.00771) BD*( 1) C   6 - H  21  
                ( 48.61%)   0.6972* C   6 s( 24.81%)p 3.03( 75.19%)
                                            0.0000 -0.4981 -0.4277  0.7261  0.2042
                ( 51.39%)  -0.7169* H  21 s(100.00%)
                                           -1.0000
    64. (0.00857) BD*( 1) C   7 - H  22  
                ( 48.11%)   0.6936* C   7 s( 25.13%)p 2.98( 74.87%)
                                            0.0000 -0.5013 -0.3977 -0.6071 -0.4712
                ( 51.89%)  -0.7203* H  22 s(100.00%)
                                           -1.0000
    65. (0.00709) BD*( 1) C   7 - H  23  
                ( 48.51%)   0.6965* C   7 s( 24.32%)p 3.11( 75.68%)
                                            0.0000 -0.4931  0.4093  0.5526 -0.5329
                ( 51.49%)  -0.7175* H  23 s(100.00%)
                                           -1.0000
    66. (0.00759) BD*( 1) O   8 - H  24  
                ( 40.68%)   0.6378* O   8 s( 16.70%)p 4.99( 83.30%)
                                            0.0000  0.4086 -0.6690  0.4296 -0.4483
                ( 59.32%)  -0.7702* H  24 s(100.00%)
                                            1.0000
    67. (0.01050) BD*( 1) C   9 - C  10  
                ( 51.14%)   0.7152* C   9 s( 24.76%)p 3.04( 75.24%)
                                            0.0000  0.4976 -0.5066  0.6974 -0.0969
                ( 48.86%)  -0.6990* C  10 s( 25.79%)p 2.88( 74.21%)
                                            0.0001  0.5078  0.5323 -0.6677  0.1142
    68. (0.01080) BD*( 1) C   9 - C  11  
                ( 50.95%)   0.7138* C   9 s( 25.41%)p 2.94( 74.59%)
                                            0.0000  0.5041 -0.0419 -0.2766  0.8171
                ( 49.05%)  -0.7003* C  11 s( 25.87%)p 2.87( 74.13%)
                                            0.0001  0.5086  0.0872  0.2961 -0.8038
    69. (0.01088) BD*( 1) C   9 - H  25  
                ( 48.91%)   0.6994* C   9 s( 24.49%)p 3.08( 75.51%)
                                            0.0000 -0.4948  0.2774  0.6285  0.5322
                ( 51.09%)  -0.7148* H  25 s(100.00%)
                                           -1.0000
    70. (0.00671) BD*( 1) C  10 - H  26  
                ( 48.26%)   0.6947* C  10 s( 24.88%)p 3.02( 75.12%)
                                            0.0000 -0.4988 -0.2176 -0.6448 -0.5367
                ( 51.74%)  -0.7193* H  26 s(100.00%)
                                           -1.0000
    71. (0.00535) BD*( 1) C  10 - H  27  
                ( 48.28%)   0.6948* C  10 s( 24.66%)p 3.06( 75.34%)
                                            0.0000 -0.4966 -0.0536 -0.2801  0.8198
                ( 51.72%)  -0.7192* H  27 s(100.00%)
                                           -1.0000
    72. (0.00495) BD*( 1) C  10 - H  28  
                ( 48.09%)   0.6935* C  10 s( 24.67%)p 3.05( 75.33%)
                                            0.0000 -0.4967  0.8164  0.2451 -0.1637
[...]
   20       4.8051       -1.6260       6.4310        -6.3922      11.1972
   21       6.1452       -4.1574      10.3026        -4.7801      10.9253
   38     200.0074       -0.0015     200.0089         0.0026     200.0048
 Sum      215.3462      -24.4403     239.7865       -28.1751     243.5213

 Contributions to Isotropic shielding for atom    8 (   346.1513 ppm):
                         Standard Origin              Atomic Origin
 NLMO      Total    Paramagnetic  Diamagnetic   Paramagnetic  Diamagnetic
    2      -0.2144       -1.0666       0.8522        -0.6825       0.4682
   10      24.5559        7.8444      16.7115        13.9075      10.6484
   11      -0.2445       -0.6471       0.4026        -1.5836       1.3391
   17      -1.3840       -1.8332       0.4492        -2.5123       1.1283
   22      20.1031        9.0046      11.0985         5.7334      14.3696
   39     271.1727       -0.0056     271.1784        -0.0034     271.1761
   43      33.0498       -1.3166      34.3664        -4.4302      37.4800
   44      -2.3433      -41.0445      38.7013       -42.3316      39.9884
 Sum      344.6952      -29.0647     373.7600       -31.9028     376.5980

 Contributions to Isotropic shielding for atom    9 (   213.4400 ppm):
                         Standard Origin              Atomic Origin
 NLMO      Total    Paramagnetic  Diamagnetic   Paramagnetic  Diamagnetic
   16       5.6212       -9.7146      15.3358        -2.1635       7.7847
   23      -1.8858       -4.8949       3.0091        -9.2748       7.3890
   24      -0.1758       -6.4690       6.2933        -7.7264       7.5507
   25       5.0723       -0.8603       5.9326        -5.8362      10.9086
   26       1.0727       -0.3236       1.3963         0.0497       1.0230
   27       0.6869       -0.6100       1.2969        -0.3414       1.0284
   28       0.6408       -0.3228       0.9636        -0.3957       1.0366
   29       0.8450       -0.3228       1.1678        -0.1798       1.0249
   30       0.6241       -0.5138       1.1379        -0.3870       1.0111
   31       0.6086       -0.1406       0.7492        -0.4297       1.0382
   40     199.9284       -0.0020     199.9304         0.0027     199.9257
 Sum      213.0386      -24.1745     237.2130       -26.6821     239.7207

 Contributions to Isotropic shielding for atom   10 (   221.5042 ppm):
                         Standard Origin              Atomic Origin
 NLMO      Total    Paramagnetic  Diamagnetic   Paramagnetic  Diamagnetic
   17      -0.2082       -0.0598      -0.1485        -1.1186       0.9104
   23       4.4351      -11.3611      15.7962        -3.6277       8.0628
   24      -0.4871        0.0238      -0.5109        -1.1860       0.6989
   25       0.2973        0.1598       0.1375        -0.7381       1.0353
   26       6.6056       -5.0312      11.6368        -4.5061      11.1117
   27       5.4234       -3.5368       8.9602        -5.6410      11.0645
   28       4.9103        2.8074       2.1030        -6.2266      11.1369
   41     200.0756       -0.0035     200.0791         0.0021     200.0735
 Sum      221.0521      -17.0013     238.0534       -23.0419     244.0940

 Contributions to Isotropic shielding for atom   11 (   224.5825 ppm):
                         Standard Origin              Atomic Origin
 NLMO      Total    Paramagnetic  Diamagnetic   Paramagnetic  Diamagnetic
   23      -0.3865       -0.0390      -0.3474        -1.0458       0.6593
   24       4.0306       -8.8461      12.8767        -3.9339       7.9645
   25       0.3281       -0.0388       0.3669        -0.6736       1.0017
   29       6.8317       -5.1268      11.9585        -4.3081      11.1398
   30       6.9047       -4.9462      11.8509        -4.2313      11.1360
   31       5.9200        3.6754       2.2446        -5.1986      11.1186
   42     200.0738       -0.0022     200.0760         0.0015     200.0723
 Sum      223.7024      -15.3239     239.0263       -19.3898     243.0922

 Contributions to Isotropic shielding for atom   12 (    32.0615 ppm):
                         Standard Origin              Atomic Origin
 NLMO      Total    Paramagnetic  Diamagnetic   Paramagnetic  Diamagnetic
    1       1.6831       -1.3784       3.0615         0.8145       0.8686
    2      26.0651        0.3688      25.6963         0.4240      25.6411
    3       1.9122        1.2886       0.6236         0.0943       1.8179
    4       1.9175        1.5892       0.3283         0.0903       1.8272
   43      -0.7560       -0.0384      -0.7176         0.4237      -1.1797
 Sum       30.8219        1.8297      28.9922         1.8468      28.9751

 Contributions to Isotropic shielding for atom   13 (    32.4504 ppm):
                         Standard Origin              Atomic Origin
 NLMO      Total    Paramagnetic  Diamagnetic   Paramagnetic  Diamagnetic
    1       1.4143       -0.3692       1.7836         0.4564       0.9579
    2       2.0109        1.0335       0.9774         0.1413       1.8696
    3      26.4660        0.1703      26.2957         0.4524      26.0136
    4       1.8856        2.4278      -0.5422         0.0508       1.8348
    6      -0.1216        0.4685      -0.5901        -1.0270       0.9055
 Sum       31.6552        3.7308      27.9244         0.0739      31.5813

 Contributions to Isotropic shielding for atom   14 (    32.4125 ppm):
                         Standard Origin              Atomic Origin
 NLMO      Total    Paramagnetic  Diamagnetic   Paramagnetic  Diamagnetic
    1       1.3346       -0.1198       1.4543         0.3516       0.9829
    2       2.0060        1.2502       0.7557         0.1431       1.8629
    3       1.8464        2.3171      -0.4707         0.0196       1.8268
    4      26.4606        0.1145      26.3461         0.4488      26.0118
    5      -0.1410        0.6560      -0.7970        -1.1106       0.9697
 Sum       31.5065        4.2180      27.2885        -0.1476      31.6541

 Contributions to Isotropic shielding for atom   15 (    32.4071 ppm):
                         Standard Origin              Atomic Origin
 NLMO      Total    Paramagnetic  Diamagnetic   Paramagnetic  Diamagnetic
    1       0.7981        2.3874      -1.5893        -0.2450       1.0431
    5       1.3238        0.9549       0.3689         0.3645       0.9594
    6       1.3827        0.5254       0.8574         0.3478       1.0349
    7      26.5876       -0.2316      26.8192         0.4324      26.1552
   19       0.0113       -0.2339       0.2452        -1.0537       1.0650
   21      -0.1272       -0.0929      -0.0343        -1.2990       1.1718
 Sum       29.9764        3.3093      26.6671        -1.4529      31.4293

 Contributions to Isotropic shielding for atom   16 (    32.0037 ppm):
                         Standard Origin              Atomic Origin
 NLMO      Total    Paramagnetic  Diamagnetic   Paramagnetic  Diamagnetic
    9       0.8122        0.4685       0.3437        -0.3882       1.2004
   10       0.6112        1.0958      -0.4846        -1.0083       1.6195
   11      26.7726        0.3352      26.4373         0.7697      26.0028
   16      -0.1725       -0.2204       0.0479        -1.1515       0.9790
   26      -0.3291       -1.5819       1.2527        -0.8751       0.5460
   29      -0.3178       -1.1639       0.8461        -0.8724       0.5546
 Sum       27.3766       -1.0665      28.4431        -3.5257      30.9023

 Contributions to Isotropic shielding for atom   17 (    32.4029 ppm):
                         Standard Origin              Atomic Origin
 NLMO      Total    Paramagnetic  Diamagnetic   Paramagnetic  Diamagnetic
   12       1.3332        0.5797       0.7535         0.3759       0.9573
   13       1.0321        1.3026      -0.2705         0.0402       0.9918
   14      26.4795        0.0194      26.4601         0.4570      26.0225
   15       2.0492        1.3768       0.6725         0.2810       1.7682
   17       0.0122       -0.1142       0.1264        -1.0558       1.0679
 Sum       30.9061        3.1642      27.7419         0.0984      30.8077

 Contributions to Isotropic shielding for atom   18 (    32.7149 ppm):
                         Standard Origin              Atomic Origin
 NLMO      Total    Paramagnetic  Diamagnetic   Paramagnetic  Diamagnetic
   12       1.4121        0.0766       1.3355         0.6167       0.7954
   13       1.1225        0.7532       0.3692         0.1828       0.9397
   14       2.0083        1.5959       0.4123         0.2378       1.7705
   15      26.4998        0.1539      26.3459         0.4278      26.0720
   16      -0.1043       -0.0983      -0.0059        -1.1013       0.9970
   24      -0.0034       -0.5722       0.5689        -1.0412       1.0379
   30      -0.4146       -1.2913       0.8767        -0.8616       0.4470
 Sum       30.5205        0.6178      29.9027        -1.5390      32.0594

 Contributions to Isotropic shielding for atom   19 (    32.8016 ppm):
                         Standard Origin              Atomic Origin
 NLMO      Total    Paramagnetic  Diamagnetic   Paramagnetic  Diamagnetic
    8       1.3781        0.7181       0.6601         0.3897       0.9884
   10      -0.1470       -0.3307       0.1836        -1.6079       1.4609
   12       1.1747        0.9591       0.2155         0.0635       1.1111
   14       0.0353       -0.5246       0.5600        -1.0002       1.0355
   16       1.0219        1.4323      -0.4104        -0.0426       1.0645
   17      26.5273       -0.0035      26.5308         0.4687      26.0587
   23      -0.0288       -0.6533       0.6245        -1.0399       1.0111
   27      -0.1404       -1.5711       1.4308        -1.0377       0.8973
 Sum       29.8211        0.0263      29.7949        -3.8066      33.6277

 Contributions to Isotropic shielding for atom   20 (    32.4370 ppm):
                         Standard Origin              Atomic Origin
 NLMO      Total    Paramagnetic  Diamagnetic   Paramagnetic  Diamagnetic
    1      -0.1292       -0.4023       0.2731        -1.2083       1.0791
    2      -0.0319       -1.0525       1.0205        -0.9742       0.9423
    5       1.3136        0.5113       0.8023         0.5195       0.7941
   10       0.0766       -0.3632       0.4398        -1.1019       1.1785
   13       1.3400        0.0122       1.3279         0.4501       0.8899
   18      26.2785        0.1897      26.0888         0.4449      25.8335
   19       1.9585        1.9203       0.0382         0.1865       1.7720
 Sum       30.8061        0.8156      29.9905        -1.6834      32.4895

 Contributions to Isotropic shielding for atom   21 (    32.2822 ppm):
                         Standard Origin              Atomic Origin
 NLMO      Total    Paramagnetic  Diamagnetic   Paramagnetic  Diamagnetic
    4      -0.0704       -1.1012       1.0308        -0.9209       0.8505
    5       1.0388        1.2188      -0.1801         0.0897       0.9491
    7       0.0424       -0.1715       0.2140        -0.9919       1.0343
   13       1.1540        0.8745       0.2794         0.2155       0.9385
   18       2.0419        1.5740       0.4679         0.2587       1.7831
   19      26.4843       -0.0633      26.5476         0.4626      26.0217
 Sum       30.6909        2.3313      28.3596        -0.8863      31.5772

 Contributions to Isotropic shielding for atom   22 (    32.1251 ppm):
                         Standard Origin              Atomic Origin
 NLMO      Total    Paramagnetic  Diamagnetic   Paramagnetic  Diamagnetic
    1      -0.1610       -0.4480       0.2870        -1.2829       1.1219
    3      -0.0574       -1.4501       1.3927        -0.9972       0.9398
    6       1.0305        1.3998      -0.3693         0.0285       1.0020
    9       1.2168        0.7207       0.4961         0.3072       0.9095
   10       0.0700       -0.0319       0.1018        -1.5374       1.6074
   20      26.1648        0.0356      26.1292         0.4624      25.7024
   21       2.1200        1.3063       0.8137         0.3742       1.7457
 Sum       30.3837        1.5324      28.8513        -2.6452      33.0289

 Contributions to Isotropic shielding for atom   23 (    32.5356 ppm):
                         Standard Origin              Atomic Origin
 NLMO      Total    Paramagnetic  Diamagnetic   Paramagnetic  Diamagnetic
    6       1.1811        0.6976       0.4835         0.1256       1.0556
    7      -0.0479       -0.8757       0.8278        -1.1702       1.1223
    9       1.4669        0.2104       1.2565         0.5963       0.8707
   20       1.9796        1.4411       0.5385         0.1543       1.8252
   21      26.3544        0.1253      26.2290         0.3786      25.9758
 Sum       30.9341        1.5987      29.3354         0.0845      30.8495

 Contributions to Isotropic shielding for atom   24 (    35.0491 ppm):
                         Standard Origin              Atomic Origin
 NLMO      Total    Paramagnetic  Diamagnetic   Paramagnetic  Diamagnetic
    8      -0.0477        0.0890      -0.1367        -1.0158       0.9681
   10       1.7230        1.8889      -0.1659         1.0231       0.6999
   11       0.1634        0.1779      -0.0145        -0.8922       1.0556
   22      23.1292       -0.4054      23.5347        -0.1242      23.2535
   43       3.9214        1.0682       2.8532         1.9735       1.9479
   44       5.3366        2.2356       3.1010         2.1704       3.1662
 Sum       34.2259        5.0542      29.1717         3.1348      31.0911

 Contributions to Isotropic shielding for atom   25 (    32.5181 ppm):
                         Standard Origin              Atomic Origin
 NLMO      Total    Paramagnetic  Diamagnetic   Paramagnetic  Diamagnetic
   12      -0.1217        0.3348      -0.4565        -1.2098       1.0881
   16       1.6565        0.0803       1.5762         0.6474       1.0090
   23       0.8031        2.1328      -1.3297        -0.1879       0.9910
   24       0.9745        1.5676      -0.5931        -0.0600       1.0345
   25      26.4826       -0.1341      26.6168         0.4573      26.0253
 Sum       29.7950        3.9812      25.8138        -0.3529      30.1479

 Contributions to Isotropic shielding for atom   26 (    32.7123 ppm):
                         Standard Origin              Atomic Origin
 NLMO      Total    Paramagnetic  Diamagnetic   Paramagnetic  Diamagnetic
    8      -0.1100        0.1538      -0.2638        -1.0799       0.9699
   23       1.5861       -1.1639       2.7500         0.6620       0.9241
   26      26.3625        0.3000      26.0624         0.3895      25.9729
   27       2.0023        0.7537       1.2486         0.1868       1.8155
   28       1.8942        1.9606      -0.0664         0.0497       1.8445
 Sum       31.7351        2.0042      29.7308         0.2080      31.5270

 Contributions to Isotropic shielding for atom   27 (    32.7246 ppm):
                         Standard Origin              Atomic Origin
 NLMO      Total    Paramagnetic  Diamagnetic   Paramagnetic  Diamagnetic
   23       1.5670       -0.6608       2.2277         0.5497       1.0173
   26       2.0485        0.6703       1.3781         0.2092       1.8393
   27      26.4004        0.2510      26.1494         0.4233      25.9772
   28       1.9061        2.3405      -0.4344         0.0550       1.8511
 Sum       31.9220        2.6011      29.3209         1.2371      30.6849

 Contributions to Isotropic shielding for atom   28 (    32.4868 ppm):
                         Standard Origin              Atomic Origin
 NLMO      Total    Paramagnetic  Diamagnetic   Paramagnetic  Diamagnetic
   23       1.2333        0.4389       0.7944         0.2028       1.0305
   24      -0.1749        0.7121      -0.8871        -1.1363       0.9613
   26       1.9749        1.5743       0.4006         0.1186       1.8563
   27       1.9196        2.0201      -0.1005         0.0780       1.8416
   28      26.3214        0.0084      26.3130         0.4484      25.8730
 Sum       31.2742        4.7537      26.5205        -0.2885      31.5627

 Contributions to Isotropic shielding for atom   29 (    32.9618 ppm):
                         Standard Origin              Atomic Origin
 NLMO      Total    Paramagnetic  Diamagnetic   Paramagnetic  Diamagnetic
    8      -0.0550        0.0870      -0.1421        -1.0003       0.9452
   24       1.4948       -0.5690       2.0637         0.5652       0.9296
   29      26.2959        0.2826      26.0133         0.3776      25.9183
   30       2.1287        0.3021       1.8266         0.3010       1.8277
   31       1.9764        1.9755       0.0009         0.1244       1.8520
 Sum       31.8407        2.0783      29.7624         0.3678      31.4729

 Contributions to Isotropic shielding for atom   30 (    32.6368 ppm):
                         Standard Origin              Atomic Origin
 NLMO      Total    Paramagnetic  Diamagnetic   Paramagnetic  Diamagnetic
   12      -0.0846        0.0130      -0.0975        -1.0069       0.9224
   24       1.4727       -0.6119       2.0846         0.4570       1.0156
   29       2.1185        0.2744       1.8441         0.2779       1.8406
   30      26.2857        0.2787      26.0070         0.3700      25.9157
   31       1.9427        1.9434      -0.0007         0.0747       1.8680
 Sum       31.7350        1.8977      29.8374         0.1727      31.5623

 Contributions to Isotropic shielding for atom   31 (    32.6294 ppm):
                         Standard Origin              Atomic Origin
 NLMO      Total    Paramagnetic  Diamagnetic   Paramagnetic  Diamagnetic
   23      -0.1476        0.5274      -0.6750        -1.1012       0.9536
   24       1.1326        1.0244       0.1082         0.0989       1.0337
   29       2.0132        1.5547       0.4584         0.1472       1.8660
   30       2.0513        1.6003       0.4509         0.1806       1.8707
   31      26.2813       -0.0435      26.3248         0.4032      25.8781
 Sum       31.3308        4.6634      26.6674        -0.2712      31.6020
 
 1\1\GINC-COMPUTE-10-6\SP\RHF\STO-3G\C10H20O1\YTSAI.IQUIR\03-Aug-2021\0
 \\# rhf/STO-3G nmr pop=nbo\\comment\\0,1\C,0,0.84292972,0.251566475,-3
 .359323016\C,0,-0.157363148,0.332957587,-2.205124199\C,0,0.684057203,-
 0.799200953,-0.049801585\C,0,-0.504252138,1.477972732,0.015348837\C,0,
 0.25547114,0.404757011,0.827480137\C,0,0.065265383,1.61542632,-1.39063
 6165\C,0,-0.14199051,-0.937206269,-1.331033031\O,0,2.054382106,-0.6407
 58802,-0.42995454\C,0,-0.54129105,0.015886574,2.10638518\C,0,0.3615120
 62,-0.683094693,3.130550124\C,0,-1.779434207,-0.84609723,1.843063456\H
 ,0,1.872523526,0.170600565,-2.996973785\H,0,0.637120773,-0.619030354,-
 3.990990419\H,0,0.77675272,1.143871129,-3.991039233\H,0,-1.155825325,0
 .391430858,-2.66010747\H,0,0.633940735,-1.740787963,0.50478404\H,0,-0.
 431811451,2.44063449,0.536159837\H,0,-1.572355047,1.245906945,-0.05640
 4787\H,0,1.173299518,0.900900604,1.177022958\H,0,1.133727868,1.8570809
 58,-1.325611795\H,0,-0.41159875,2.458926633,-1.904243129\H,0,0.2238299
 03,-1.787976345,-1.919076553\H,0,-1.175722903,-1.178032183,-1.05259905
 8\H,0,2.58496491,-0.641653869,0.385019076\H,0,-0.885541106,0.947354283
 ,2.576415766\H,0,0.714330121,-1.654611282,2.771447842\H,0,1.237066848,
 -0.067593877,3.36239755\H,0,-0.179959967,-0.852204417,4.067775357\H,0,
 -1.515509656,-1.826953676,1.435858486\H,0,-2.470285889,-0.362663518,1.
 147222355\H,0,-2.328233388,-1.017407736,2.77598776\\Version=EM64L-G09R
 evC.01\State=1-A\HF=-459.6123138\RMSD=8.294e-09\Dipole=-0.2216234,0.00
 03515,0.5216905\Quadrupole=-0.1271006,0.356488,-0.2293875,0.2244904,2.
 3735851,-0.3800913\PG=C01 [X(C10H20O1)]\\@


 WE DON'T KNOW ONE MILLIONTH OF ONE PERCENT ABOUT
 ANYTHING.
                                     T. A. EDISON.
 Job cpu time:  0 days  0 hours  0 minutes 35.7 seconds.
 File lengths (MBytes):  RWF=      5 Int=      0 D2E=      0 Chk=      1 Scr=      1
 Normal termination of Gaussian 09 at Tue Aug  3 16:33:18 2021.
