 Entering Gaussian System, Link 0=g09
 Input=/home/ytsai.iquir/menthol/01_menthol_M0076_MMFF_NMR_rhf_STO-3G_nbo.gjc
 Output=/home/ytsai.iquir/menthol/01_menthol_M0076_MMFF_NMR_rhf_STO-3G_nbo.log
 Initial command:
 /share/apps/Gaussian09/EM64T.SSE4.2-enabled/g09/l1.exe /tmp/Gau-7661.inp -scrdir=/tmp/
 Entering Link 1 = /share/apps/Gaussian09/EM64T.SSE4.2-enabled/g09/l1.exe PID=      7662.
  
 Copyright (c) 1988,1990,1992,1993,1995,1998,2003,2009,2011,
            Gaussian, Inc.  All Rights Reserved.
  
 This is part of the Gaussian(R) 09 program.  It is based on
 the Gaussian(R) 03 system (copyright 2003, Gaussian, Inc.),
 the Gaussian(R) 98 system (copyright 1998, Gaussian, Inc.),
 the Gaussian(R) 94 system (copyright 1995, Gaussian, Inc.),
 the Gaussian 92(TM) system (copyright 1992, Gaussian, Inc.),
 the Gaussian 90(TM) system (copyright 1990, Gaussian, Inc.),
 the Gaussian 88(TM) system (copyright 1988, Gaussian, Inc.),
 the Gaussian 86(TM) system (copyright 1986, Carnegie Mellon
 University), and the Gaussian 82(TM) system (copyright 1983,
 Carnegie Mellon University). Gaussian is a federally registered
 trademark of Gaussian, Inc.
  
 This software contains proprietary and confidential information,
 including trade secrets, belonging to Gaussian, Inc.
  
 This software is provided under written license and may be
 used, copied, transmitted, or stored only in accord with that
 written license.
  
 The following legend is applicable only to US Government
 contracts under FAR:
  
                    RESTRICTED RIGHTS LEGEND
  
 Use, reproduction and disclosure by the US Government is
 subject to restrictions as set forth in subparagraphs (a)
 and (c) of the Commercial Computer Software - Restricted
 Rights clause in FAR 52.227-19.
  
 Gaussian, Inc.
 340 Quinnipiac St., Bldg. 40, Wallingford CT 06492
  
  
 ---------------------------------------------------------------
 Warning -- This program may not be used in any manner that
 competes with the business of Gaussian, Inc. or will provide
 assistance to any competitor of Gaussian, Inc.  The licensee
 of this program is prohibited from giving any competitor of
 Gaussian, Inc. access to this program.  By using this program,
 the user acknowledges that Gaussian, Inc. is engaged in the
 business of creating and licensing software in the field of
 computational chemistry and represents and warrants to the
 licensee that it is not a competitor of Gaussian, Inc. and that
 it will not use this program in any manner prohibited above.
 ---------------------------------------------------------------
  

 Cite this work as:
 Gaussian 09, Revision C.01,
 M. J. Frisch, G. W. Trucks, H. B. Schlegel, G. E. Scuseria, 
 M. A. Robb, J. R. Cheeseman, G. Scalmani, V. Barone, B. Mennucci, 
 G. A. Petersson, H. Nakatsuji, M. Caricato, X. Li, H. P. Hratchian, 
 A. F. Izmaylov, J. Bloino, G. Zheng, J. L. Sonnenberg, M. Hada, 
 M. Ehara, K. Toyota, R. Fukuda, J. Hasegawa, M. Ishida, T. Nakajima, 
 Y. Honda, O. Kitao, H. Nakai, T. Vreven, J. A. Montgomery, Jr., 
 J. E. Peralta, F. Ogliaro, M. Bearpark, J. J. Heyd, E. Brothers, 
 K. N. Kudin, V. N. Staroverov, T. Keith, R. Kobayashi, J. Normand, 
 K. Raghavachari, A. Rendell, J. C. Burant, S. S. Iyengar, J. Tomasi, 
 M. Cossi, N. Rega, J. M. Millam, M. Klene, J. E. Knox, J. B. Cross, 
 V. Bakken, C. Adamo, J. Jaramillo, R. Gomperts, R. E. Stratmann, 
 O. Yazyev, A. J. Austin, R. Cammi, C. Pomelli, J. W. Ochterski, 
 R. L. Martin, K. Morokuma, V. G. Zakrzewski, G. A. Voth, 
 P. Salvador, J. J. Dannenberg, S. Dapprich, A. D. Daniels, 
 O. Farkas, J. B. Foresman, J. V. Ortiz, J. Cioslowski, 
 and D. J. Fox, Gaussian, Inc., Wallingford CT, 2010.
 
 ******************************************
 Gaussian 09:  EM64L-G09RevC.01 23-Sep-2011
                 3-Aug-2021 
 ******************************************
 %nprocshared=4
 Will use up to    4 processors via shared memory.
 ------------------------
 # rhf/STO-3G nmr pop=nbo
 ------------------------
 1/38=1/1;
 2/12=2,17=6,18=5,40=1/2;
 3/6=3,11=1,16=1,25=1,30=1,116=1/1,2,8,3;
 4//1;
 5/5=2,38=5/2;
 8/6=1,10=90,11=11/1;
 10/13=100,45=16/2;
 6/7=2,8=2,9=2,10=2,28=1,64=1/1,7;
 99/9=1/99;
 -------
 comment
 -------
 Charge =  0 Multiplicity = 1
 Symbolic Z-Matrix:
 6                     1.01594  -1.23188  -2.66115 
 6                    -0.36295  -1.27559  -1.99602 
 6                     0.38655  -1.22103   0.46632 
 6                    -1.03292   0.6687   -0.43847 
 6                     0.23682   0.3156    0.34708 
 6                    -0.97246   0.13265  -1.87255 
 6                    -0.32645  -2.00227  -0.64499 
 8                     1.7746   -1.56179   0.43941 
 6                     0.32899   1.01035   1.73821 
 6                    -0.91384   0.81856   2.61345 
 6                     0.62201   2.509     1.59632 
 1                     1.44188  -2.23776  -2.73863 
 1                     0.9377   -0.82723  -3.67621 
 1                     1.72239  -0.60524  -2.10956 
 1                    -1.00695  -1.85937  -2.66758 
 1                     0.00339  -1.58865   1.42366 
 1                    -1.18658   1.75219  -0.47968 
 1                    -1.91434   0.24716   0.0607 
 1                     1.09532   0.68613  -0.2316 
 1                    -0.41995   0.84284  -2.50049 
 1                    -1.9948    0.11823  -2.27154 
 1                     0.12984  -2.9923   -0.7679 
 1                    -1.36532  -2.1737   -0.33242 
 1                     2.20631  -1.10533   1.18096 
 1                     1.18073   0.57439   2.27652 
 1                    -1.78905   1.3221    2.1902 
 1                    -1.15953  -0.2387    2.74499 
 1                    -0.74513   1.24061   3.61052 
 1                    -0.20833   3.04554   1.12718 
 1                     1.52109   2.67599   0.99399 
 1                     0.79504   2.9608    2.57929 
 
                          Input orientation:                          
 ---------------------------------------------------------------------
 Center     Atomic      Atomic             Coordinates (Angstroms)
 Number     Number       Type             X           Y           Z
 ---------------------------------------------------------------------
      1          6           0        1.015943   -1.231876   -2.661150
      2          6           0       -0.362948   -1.275592   -1.996018
      3          6           0        0.386550   -1.221033    0.466320
      4          6           0       -1.032923    0.668700   -0.438472
      5          6           0        0.236816    0.315601    0.347078
      6          6           0       -0.972463    0.132653   -1.872547
      7          6           0       -0.326446   -2.002274   -0.644985
      8          8           0        1.774600   -1.561789    0.439410
      9          6           0        0.328992    1.010351    1.738213
     10          6           0       -0.913840    0.818563    2.613447
     11          6           0        0.622014    2.509003    1.596323
     12          1           0        1.441884   -2.237763   -2.738628
     13          1           0        0.937698   -0.827230   -3.676212
     14          1           0        1.722388   -0.605237   -2.109560
     15          1           0       -1.006952   -1.859367   -2.667585
     16          1           0        0.003387   -1.588647    1.423659
     17          1           0       -1.186585    1.752187   -0.479684
     18          1           0       -1.914336    0.247164    0.060699
     19          1           0        1.095320    0.686131   -0.231601
     20          1           0       -0.419949    0.842835   -2.500486
     21          1           0       -1.994801    0.118230   -2.271542
     22          1           0        0.129844   -2.992301   -0.767899
     23          1           0       -1.365319   -2.173697   -0.332424
     24          1           0        2.206306   -1.105331    1.180955
     25          1           0        1.180730    0.574385    2.276520
     26          1           0       -1.789049    1.322096    2.190197
     27          1           0       -1.159529   -0.238705    2.744991
     28          1           0       -0.745126    1.240606    3.610517
     29          1           0       -0.208332    3.045545    1.127183
     30          1           0        1.521090    2.675991    0.993995
     31          1           0        0.795037    2.960803    2.579288
 ---------------------------------------------------------------------
                    Distance matrix (angstroms):
                    1          2          3          4          5
     1  C    0.000000
     2  C    1.531553   0.000000
     3  C    3.190191   2.574457   0.000000
     4  C    3.570762   2.579746   2.530739   0.000000
     5  C    3.471477   2.895118   1.548509   1.534276   0.000000
     6  C    2.537241   1.539451   3.024844   1.532180   2.534277
     7  C    2.541741   1.534499   1.534177   2.770534   2.583408
     8  O    3.209031   3.253049   1.429518   3.691605   2.428559
     9  C    4.985366   4.432697   2.569066   2.590269   1.557701
    10  C    5.979108   5.092753   3.234366   3.057915   2.591025
    11  C    5.681147   5.310200   3.904551   3.204048   2.553430
    12  H    1.095097   2.175928   3.524083   4.456783   4.182515
    13  H    1.095541   2.171581   4.197549   4.074815   4.240773
    14  H    1.093614   2.193376   2.966281   3.465140   3.014952
    15  H    2.117993   1.098424   3.488649   3.370570   3.919902
    16  H    4.223532   3.453461   1.094738   3.104365   2.199926
    17  H    4.302854   3.484981   3.494239   1.095104   2.184807
    18  H    4.264101   2.992603   2.759385   1.097156   2.171209
    19  H    3.096411   3.014643   2.150982   2.138345   1.099632
    20  H    2.528245   2.178411   3.702962   2.158232   2.969501
    21  H    3.322524   2.163700   3.867860   2.142049   3.446192
    22  H    2.732887   2.167535   2.174071   3.855318   3.492396
    23  H    3.461272   2.139832   2.148163   2.863730   3.037295
    24  H    4.024270   4.089403   1.958470   4.032658   2.567740
    25  H    5.260258   4.905093   2.670407   3.504331   2.163490
    26  H    6.158435   5.128952   3.764637   2.812215   2.917919
    27  H    5.911466   4.918012   2.923640   3.312680   2.829668
    28  H    6.967663   6.157154   4.150461   4.099294   3.531272
    29  H    5.843513   5.333903   4.358246   2.963211   2.873903
    30  H    5.374633   5.301395   4.092972   3.550234   2.763930
    31  H    6.714875   6.342034   4.703110   4.207380   3.505919
                    6          7          8          9         10
     6  C    0.000000
     7  C    2.546008   0.000000
     8  O    3.970219   2.405065   0.000000
     9  C    3.937224   3.896812   3.223752   0.000000
    10  C    4.538508   4.349659   4.197645   1.532139   0.000000
    11  C    4.496939   5.125881   4.386143   1.533608   2.500195
    12  H    3.492569   2.750598   3.266124   5.641886   6.598126
    13  H    2.797016   3.488141   4.263605   5.750063   6.759929
    14  H    2.804083   2.880003   2.723044   4.399663   5.593184
    15  H    2.145092   2.138789   4.180789   5.425042   5.921932
    16  H    3.844494   2.135220   2.026490   2.638135   2.837527
    17  H    2.146813   3.855274   4.538258   2.786819   3.242453
    18  H    2.153527   2.842420   4.126012   2.903279   2.800716
    19  H    2.697178   3.069174   2.442299   2.138351   3.485478
    20  H    1.097241   3.397981   4.386485   4.307615   5.137784
    21  H    1.097534   3.150497   4.937622   4.719537   5.051936
    22  H    3.492945   1.097024   2.491823   4.726677   5.200525
    23  H    2.800993   1.098333   3.290782   4.158893   4.223222
    24  H    4.578324   3.248600   0.971912   2.882872   3.935570
    25  H    4.695330   4.176834   2.879391   1.097860   2.135501
    26  H    4.311320   4.607483   4.907305   2.188053   1.094841
    27  H    4.636223   3.911028   3.959213   2.188478   1.093381
    28  H    5.598503   5.366643   4.925277   2.170776   1.095780
    29  H    4.250555   5.351169   5.062863   2.191823   2.768785
    30  H    4.572028   5.290162   4.281427   2.179293   3.464325
    31  H    5.562493   6.023769   5.098280   2.174596   2.740551
                   11         12         13         14         15
    11  C    0.000000
    12  H    6.480414   0.000000
    13  H    6.247378   1.767164   0.000000
    14  H    4.964160   1.771877   1.766187   0.000000
    15  H    6.317998   2.478917   2.421632   3.055083   0.000000
    16  H    4.147680   4.451433   5.240360   4.050395   4.222836
    17  H    2.855452   5.285014   4.624258   4.083634   4.226405
    18  H    3.729226   5.027455   4.822129   4.319997   3.564316
    19  H    2.624535   3.867098   3.765694   2.363806   4.102819
    20  H    4.543748   3.607384   2.452480   2.615215   2.770269
    21  H    5.246322   4.192813   3.386229   3.790401   2.245793
    22  H    6.008005   2.484864   3.714626   3.167700   2.486895
    23  H    5.440334   3.697879   4.277590   3.892585   2.383318
    24  H    3.968113   4.150888   5.027801   3.363296   5.069996
    25  H    2.125459   5.755700   6.120344   4.574123   5.929019
    26  H    2.752210   6.885117   6.816855   5.876455   5.859303
    27  H    3.470336   6.390122   6.780603   5.657425   5.652062
    28  H    2.744974   7.562651   7.759141   6.497311   7.006635
    29  H    1.094278   6.751374   6.275697   5.247132   6.252697
    30  H    1.094998   6.171201   5.867175   4.520955   6.353553
    31  H    1.095573   7.464832   7.314426   5.963382   7.349209
                   16         17         18         19         20
    16  H    0.000000
    17  H    4.024912   0.000000
    18  H    2.984212   1.756909   0.000000
    19  H    3.017751   2.530831   3.055513   0.000000
    20  H    4.635756   2.344843   3.024514   2.732844   0.000000
    21  H    4.534390   2.556127   2.337188   3.746027   1.748608
    22  H    2.605602   4.932161   3.919104   3.840654   4.244102
    23  H    2.302057   3.932708   2.513271   3.774059   3.833234
    24  H    2.268337   4.736542   4.479275   2.537507   4.923980
    25  H    2.606188   3.819431   3.820519   2.512061   5.045198
    26  H    3.503261   2.770597   2.388711   3.819574   4.909851
    27  H    2.218251   3.789844   2.830411   3.847046   5.406639
    28  H    3.653395   4.145642   3.867193   4.296109   6.132562
    29  H    4.648490   2.282931   3.446559   3.018714   4.249317
    30  H    4.546996   3.218174   4.309570   2.375481   4.397669
    31  H    4.760219   3.839907   4.587791   3.628415   5.636141
                   21         22         23         24         25
    21  H    0.000000
    22  H    4.055917   0.000000
    23  H    3.067467   1.759336   0.000000
    24  H    5.573701   3.416195   4.023460   0.000000
    25  H    5.565693   4.805632   4.565184   2.252446   0.000000
    26  H    4.625878   5.571939   4.331712   4.782659   3.063676
    27  H    5.098107   4.645984   3.641020   3.811311   2.521387
    28  H    6.117191   6.152527   5.252512   4.485213   2.435635
    29  H    4.828248   6.337293   5.541620   4.802409   3.058938
    30  H    5.437588   6.096669   5.797432   3.847450   2.485451
    31  H    6.276462   6.861894   6.285562   4.525533   2.436271
                   26         27         28         29         30
    26  H    0.000000
    27  H    1.772058   0.000000
    28  H    1.764575   1.763299   0.000000
    29  H    2.568841   3.782641   3.116553   0.000000
    30  H    3.771068   4.329799   3.747300   1.773474   0.000000
    31  H    3.084518   3.752950   2.528757   1.767071   1.766756
                   31
    31  H    0.000000
 Stoichiometry    C10H20O
 Framework group  C1[X(C10H20O)]
 Deg. of freedom    87
 Full point group                 C1      NOp   1
 Largest Abelian subgroup         C1      NOp   1
 Largest concise Abelian subgroup C1      NOp   1
                         Standard orientation:                         
 ---------------------------------------------------------------------
 Center     Atomic      Atomic             Coordinates (Angstroms)
 Number     Number       Type             X           Y           Z
 ---------------------------------------------------------------------
      1          6           0       -2.827208   -0.079167    1.035944
      2          6           0       -2.247701   -0.519940   -0.311477
      3          6           0       -0.259294    1.110541   -0.436378
      4          6           0        0.183453   -1.380432   -0.375782
      5          6           0        0.550985   -0.023399    0.238537
      6          6           0       -1.293875   -1.717267   -0.148586
      7          6           0       -1.581463    0.643122   -1.058540
      8          8           0       -0.547794    2.122511    0.531200
      9          6           0        2.079070    0.278690    0.227084
     10          6           0        2.735342    0.117070   -1.147919
     11          6           0        2.827334   -0.584918    1.249940
     12          1           0       -3.499382    0.775941    0.908624
     13          1           0       -3.408037   -0.891717    1.486067
     14          1           0       -2.048203    0.204177    1.749288
     15          1           0       -3.101737   -0.854483   -0.915827
     16          1           0        0.318851    1.602383   -1.225232
     17          1           0        0.791804   -2.186501    0.047793
     18          1           0        0.383374   -1.372306   -1.454539
     19          1           0        0.257969   -0.051780    1.298031
     20          1           0       -1.413105   -2.166282    0.845450
     21          1           0       -1.575697   -2.501299   -0.863045
     22          1           0       -2.282594    1.482974   -1.139322
     23          1           0       -1.378524    0.305829   -2.083911
     24          1           0        0.298631    2.450475    0.878499
     25          1           0        2.218249    1.322598    0.537217
     26          1           0        2.729969   -0.926414   -1.479265
     27          1           0        2.234793    0.719395   -1.910898
     28          1           0        3.781160    0.441999   -1.110259
     29          1           0        2.801971   -1.646471    0.985542
     30          1           0        2.394062   -0.470753    2.249071
     31          1           0        3.878948   -0.283651    1.310171
 ---------------------------------------------------------------------
 Rotational constants (GHZ):      1.6659257      0.7511453      0.6640073
 Standard basis: STO-3G (5D, 7F)
 There are    75 symmetry adapted basis functions of A   symmetry.
 Integral buffers will be    131072 words long.
 Raffenetti 1 integral format.
 Two-electron integral symmetry is turned on.
    75 basis functions,   225 primitive gaussians,    75 cartesian basis functions
    44 alpha electrons       44 beta electrons
       nuclear repulsion energy       698.6485748618 Hartrees.
 NAtoms=   31 NActive=   31 NUniq=   31 SFac= 1.00D+00 NAtFMM=   60 NAOKFM=F Big=F
 One-electron integrals computed using PRISM.
 NBasis=    75 RedAO= T  NBF=    75
 NBsUse=    75 1.00D-06 NBFU=    75
 Harris functional with IExCor=  205 diagonalized for initial guess.
 ExpMin= 1.69D-01 ExpMax= 1.31D+02 ExpMxC= 1.31D+02 IAcc=1 IRadAn=         1 AccDes= 0.00D+00
 HarFok:  IExCor=  205 AccDes= 0.00D+00 IRadAn=         1 IDoV= 1
 ScaDFX=  1.000000  1.000000  1.000000  1.000000
 FoFCou: FMM=F IPFlag=           0 FMFlag=      100000 FMFlg1=           0
         NFxFlg=           0 DoJE=T BraDBF=F KetDBF=T FulRan=T
         Omega=  0.000000  0.000000  1.000000  0.000000  0.000000 ICntrl=     500 IOpCl=  0
         NMat0=    1 NMatS0=    1 NMatT0=    0 NMatD0=    1 NMtDS0=    0 NMtDT0=    0
         I1Cent=           4 NGrid=           0.
 Petite list used in FoFCou.
 Initial guess orbital symmetries:
       Occupied  (A) (A) (A) (A) (A) (A) (A) (A) (A) (A) (A) (A)
                 (A) (A) (A) (A) (A) (A) (A) (A) (A) (A) (A) (A)
                 (A) (A) (A) (A) (A) (A) (A) (A) (A) (A) (A) (A)
                 (A) (A) (A) (A) (A) (A) (A) (A)
       Virtual   (A) (A) (A) (A) (A) (A) (A) (A) (A) (A) (A) (A)
                 (A) (A) (A) (A) (A) (A) (A) (A) (A) (A) (A) (A)
                 (A) (A) (A) (A) (A) (A) (A)
 The electronic state of the initial guess is 1-A.
 Requested convergence on RMS density matrix=1.00D-08 within 128 cycles.
 Requested convergence on MAX density matrix=1.00D-06.
 Requested convergence on             energy=1.00D-06.
 No special actions if energy rises.
 Keep R1 ints in memory in canonical form, NReq=4898789.
 SCF Done:  E(RHF) =  -459.610887245     A.U. after   10 cycles
             Convg  =    0.8504D-08             -V/T =  2.0089
 Range of M.O.s used for correlation:     1    75
 NBasis=    75 NAE=    44 NBE=    44 NFC=     0 NFV=     0
 NROrb=     75 NOA=    44 NOB=    44 NVA=    31 NVB=    31
          Differentiating once with respect to magnetic field using GIAOs.
          Electric field/nuclear overlap derivatives assumed to be zero.
          Keep R3 ints in memory in canonical form, NReq=4863575.
 FoFCou: FMM=F IPFlag=           0 FMFlag=           0 FMFlg1=           0
         NFxFlg=           0 DoJE=F BraDBF=F KetDBF=T FulRan=T
         Omega=  0.000000  0.000000  1.000000  0.000000  0.000000 ICntrl=    6100 IOpCl=  0
         NMat0=    1 NMatS0=    1 NMatT0=    0 NMatD0=    1 NMtDS0=    0 NMtDT0=    0
         I1Cent=           7 NGrid=          31.
 Symmetry not used in FoFCou.
          There are     3 degrees of freedom in the 1st order CPHF.  IDoFFX=0.
      3 vectors produced by pass  0 Test12= 4.55D-14 3.33D-08 XBig12= 6.84D+00 4.99D-01.
 AX will form     3 AO Fock derivatives at one time.
      3 vectors produced by pass  1 Test12= 4.55D-14 3.33D-08 XBig12= 9.68D-03 1.35D-02.
      3 vectors produced by pass  2 Test12= 4.55D-14 3.33D-08 XBig12= 8.92D-05 2.28D-03.
      3 vectors produced by pass  3 Test12= 4.55D-14 3.33D-08 XBig12= 1.63D-06 4.03D-04.
      3 vectors produced by pass  4 Test12= 4.55D-14 3.33D-08 XBig12= 1.85D-08 2.22D-05.
      3 vectors produced by pass  5 Test12= 4.55D-14 3.33D-08 XBig12= 2.45D-10 2.88D-06.
      3 vectors produced by pass  6 Test12= 4.55D-14 3.33D-08 XBig12= 2.86D-12 2.80D-07.
 Inverted reduced A of dimension    21 with in-core refinement.
 Calculating GIAO nuclear magnetic shielding tensors.
 SCF GIAO Magnetic shielding tensor (ppm):
      1  C    Isotropic =   220.0696   Anisotropy =    26.4980
   XX=   216.8251   YX=    -6.2652   ZX=   -10.5274
   XY=    -7.2756   YY=   216.2530   ZY=     3.2236
   XZ=   -14.6130   YZ=     3.9705   ZZ=   227.1307
   Eigenvalues:   206.7407   215.7331   237.7349
      2  C    Isotropic =   216.9356   Anisotropy =     4.5235
   XX=   217.8835   YX=    -2.0072   ZX=    -3.4750
   XY=    -0.8192   YY=   218.1120   ZY=    -2.2937
   XZ=    -3.0008   YZ=    -1.6386   ZZ=   214.8113
   Eigenvalues:   211.8328   219.0228   219.9513
      3  C    Isotropic =   188.6603   Anisotropy =    33.6930
   XX=   182.9845   YX=    -5.5816   ZX=     1.3261
   XY=    -7.5756   YY=   195.2553   ZY=    19.1191
   XZ=    -1.5024   YZ=    17.4470   ZZ=   187.7412
   Eigenvalues:   171.3116   183.5470   211.1223
      4  C    Isotropic =   220.7069   Anisotropy =    11.8640
   XX=   226.7192   YX=     2.8829   ZX=    -0.3512
   XY=     3.7143   YY=   221.7168   ZY=     5.6949
   XZ=     0.5947   YZ=     2.2173   ZZ=   213.6847
   Eigenvalues:   211.9703   221.5342   228.6163
      5  C    Isotropic =   208.8725   Anisotropy =    14.3393
   XX=   216.1414   YX=    -9.5804   ZX=    -1.4398
   XY=    -1.3252   YY=   205.4183   ZY=     0.1589
   XZ=     0.1581   YZ=    -1.8837   ZZ=   205.0578
   Eigenvalues:   202.6752   205.5103   218.4320
      6  C    Isotropic =   216.8697   Anisotropy =    16.5834
   XX=   222.6800   YX=    -6.3029   ZX=    -3.8109
   XY=    -6.6273   YY=   219.8608   ZY=    -4.5933
   XZ=    -3.7020   YZ=    -2.1019   ZZ=   208.0681
   Eigenvalues:   205.3810   217.3027   227.9253
      7  C    Isotropic =   216.5285   Anisotropy =    11.7675
   XX=   222.1994   YX=     3.2771   ZX=     0.7730
   XY=     4.7980   YY=   216.7659   ZY=    -3.9742
   XZ=     1.9681   YZ=    -3.4885   ZZ=   210.6200
   Eigenvalues:   208.1891   217.0228   224.3735
      8  O    Isotropic =   355.8954   Anisotropy =    66.8213
   XX=   380.8912   YX=    17.3012   ZX=    40.2180
   XY=     7.0598   YY=   336.6351   ZY=    -6.7403
   XZ=    17.6747   YZ=    11.5446   ZZ=   350.1598
   Eigenvalues:   329.3808   337.8623   400.4429
      9  C    Isotropic =   213.9776   Anisotropy =    14.1887
   XX=   223.1181   YX=     1.7188   ZX=     2.9396
   XY=     1.1463   YY=   207.1180   ZY=    -4.3264
   XZ=     0.5788   YZ=    -2.5360   ZZ=   211.6968
   Eigenvalues:   205.0391   213.4571   223.4367
     10  C    Isotropic =   224.2453   Anisotropy =    20.7200
   XX=   222.7058   YX=     1.0704   ZX=    -9.1180
   XY=    -0.3395   YY=   215.8275   ZY=     1.2170
   XZ=    -6.2617   YZ=    -0.2218   ZZ=   234.2025
   Eigenvalues:   215.7273   218.9499   238.0586
     11  C    Isotropic =   221.2654   Anisotropy =    27.1414
   XX=   221.5988   YX=    -5.7029   ZX=     9.1978
   XY=    -8.3278   YY=   214.1252   ZY=   -11.8345
   XZ=     6.0918   YZ=    -8.9320   ZZ=   228.0722
   Eigenvalues:   207.9018   216.5348   239.3597
     12  H    Isotropic =    32.3452   Anisotropy =    13.9412
   XX=    35.4954   YX=    -6.4942   ZX=    -2.8797
   XY=    -6.5753   YY=    33.3495   ZY=     0.5373
   XZ=    -3.1837   YZ=     1.0163   ZZ=    28.1908
   Eigenvalues:    26.3537    29.0426    41.6394
     13  H    Isotropic =    32.4663   Anisotropy =    14.4194
   XX=    33.7753   YX=     4.0130   ZX=    -6.1243
   XY=     4.3747   YY=    31.6879   ZY=    -3.3242
   XZ=    -6.3406   YZ=    -3.8295   ZZ=    31.9357
   Eigenvalues:    26.5552    28.7645    42.0792
     14  H    Isotropic =    32.2649   Anisotropy =     7.2338
   XX=    33.4725   YX=     1.8450   ZX=     0.6567
   XY=     1.9703   YY=    27.3789   ZY=     2.7361
   XZ=     0.5550   YZ=     2.6485   ZZ=    35.9433
   Eigenvalues:    26.2145    33.4927    37.0874
     15  H    Isotropic =    32.3044   Anisotropy =    15.4754
   XX=    37.5844   YX=     3.6962   ZX=     6.0126
   XY=     3.6806   YY=    28.5540   ZY=     2.5387
   XZ=     6.1995   YZ=     2.7340   ZZ=    30.7749
   Eigenvalues:    26.7579    27.5340    42.6214
     16  H    Isotropic =    31.9902   Anisotropy =     9.0484
   XX=    33.0520   YX=     1.6708   ZX=    -3.0026
   XY=     1.3702   YY=    30.4686   ZY=    -3.7148
   XZ=    -2.6471   YZ=    -5.1630   ZZ=    32.4499
   Eigenvalues:    26.8455    31.1026    38.0225
     17  H    Isotropic =    32.6123   Anisotropy =    12.3861
   XX=    35.0017   YX=    -3.8177   ZX=     2.7430
   XY=    -3.6013   YY=    37.1964   ZY=    -2.4161
   XZ=     2.8866   YZ=    -2.6130   ZZ=    25.6387
   Eigenvalues:    24.6698    32.2973    40.8697
     18  H    Isotropic =    32.9345   Anisotropy =    10.4345
   XX=    32.1756   YX=     0.7401   ZX=    -3.2981
   XY=     0.7168   YY=    29.1903   ZY=     3.5315
   XZ=    -3.1120   YZ=     3.9810   ZZ=    37.4375
   Eigenvalues:    26.9956    31.9170    39.8908
     19  H    Isotropic =    32.6404   Anisotropy =     7.7983
   XX=    33.5918   YX=    -0.1328   ZX=    -1.3740
   XY=     0.3957   YY=    26.9219   ZY=    -0.0049
   XZ=    -1.3344   YZ=     0.1156   ZZ=    37.4075
   Eigenvalues:    26.9187    33.1633    37.8393
     20  H    Isotropic =    32.5535   Anisotropy =    12.1218
   XX=    30.5461   YX=     0.3114   ZX=    -2.7550
   XY=     0.7348   YY=    33.3991   ZY=    -6.3691
   XZ=    -3.0015   YZ=    -6.5927   ZZ=    33.7154
   Eigenvalues:    26.3617    30.6642    40.6347
     21  H    Isotropic =    32.1441   Anisotropy =    15.0799
   XX=    30.2172   YX=     2.9759   ZX=     1.7679
   XY=     3.2897   YY=    37.3122   ZY=     6.5441
   XZ=     2.2632   YZ=     6.9175   ZZ=    28.9029
   Eigenvalues:    25.1572    29.0777    42.1974
     22  H    Isotropic =    31.9886   Anisotropy =    14.0380
   XX=    33.9430   YX=    -5.7033   ZX=     2.9169
   XY=    -5.5567   YY=    34.4815   ZY=    -3.6362
   XZ=     2.8727   YZ=    -3.4091   ZZ=    27.5414
   Eigenvalues:    26.0042    28.6144    41.3473
     23  H    Isotropic =    32.4091   Anisotropy =    12.6316
   XX=    28.9094   YX=     0.2223   ZX=     0.1253
   XY=     0.5941   YY=    27.5296   ZY=     0.7054
   XZ=     0.8921   YZ=     0.2936   ZZ=    40.7884
   Eigenvalues:    27.4087    28.9885    40.8302
     24  H    Isotropic =    34.6078   Anisotropy =    16.9358
   XX=    38.1816   YX=     4.6491   ZX=     5.1385
   XY=     2.6284   YY=    36.1319   ZY=     8.1026
   XZ=     4.7573   YZ=     7.8608   ZZ=    29.5099
   Eigenvalues:    23.8279    34.0971    45.8983
     25  H    Isotropic =    33.0136   Anisotropy =    11.3114
   XX=    31.9367   YX=     1.8373   ZX=     1.6296
   XY=     1.8665   YY=    38.8142   ZY=     3.8668
   XZ=     1.5801   YZ=     3.4590   ZZ=    28.2898
   Eigenvalues:    26.9337    31.5524    40.5545
     26  H    Isotropic =    32.7969   Anisotropy =    10.2044
   XX=    31.0717   YX=    -0.8759   ZX=    -2.9738
   XY=    -1.0496   YY=    35.4268   ZY=     4.8276
   XZ=    -3.0309   YZ=     4.8926   ZZ=    31.8921
   Eigenvalues:    27.3441    31.4467    39.5998
     27  H    Isotropic =    32.7205   Anisotropy =    10.9298
   XX=    31.8729   YX=    -1.5134   ZX=    -0.1505
   XY=    -1.7155   YY=    29.3852   ZY=    -5.4738
   XZ=     0.0608   YZ=    -5.8522   ZZ=    36.9035
   Eigenvalues:    25.9905    32.1640    40.0071
     28  H    Isotropic =    32.6383   Anisotropy =    14.7387
   XX=    40.6272   YX=     3.8165   ZX=    -3.0506
   XY=     3.7179   YY=    27.5090   ZY=    -1.1172
   XZ=    -3.0854   YZ=    -1.0855   ZZ=    29.7786
   Eigenvalues:    26.4755    28.9752    42.4641
     29  H    Isotropic =    32.5398   Anisotropy =    10.1994
   XX=    30.6266   YX=    -2.4089   ZX=     2.3776
   XY=    -2.2902   YY=    38.5131   ZY=    -0.7587
   XZ=     2.2944   YZ=    -0.7897   ZZ=    28.4795
   Eigenvalues:    26.9459    31.3340    39.3394
     30  H    Isotropic =    32.6134   Anisotropy =    12.4574
   XX=    30.3331   YX=    -1.1041   ZX=     0.0114
   XY=    -0.6753   YY=    26.6487   ZY=    -1.0940
   XZ=    -0.3525   YZ=    -0.7368   ZZ=    40.8584
   Eigenvalues:    26.3853    30.5366    40.9183
     31  H    Isotropic =    32.4873   Anisotropy =    14.4824
   XX=    40.7288   YX=     1.5067   ZX=     4.1458
   XY=     1.1377   YY=    27.0504   ZY=    -0.7666
   XZ=     4.0249   YZ=    -0.8689   ZZ=    29.6826
   Eigenvalues:    26.2932    29.0265    42.1422
 End of Minotr Frequency-dependent properties file   721 does not exist.
 End of Minotr Frequency-dependent properties file   722 does not exist.

 **********************************************************************

            Population analysis using the SCF density.

 **********************************************************************

 Orbital symmetries:
       Occupied  (A) (A) (A) (A) (A) (A) (A) (A) (A) (A) (A) (A)
                 (A) (A) (A) (A) (A) (A) (A) (A) (A) (A) (A) (A)
                 (A) (A) (A) (A) (A) (A) (A) (A) (A) (A) (A) (A)
                 (A) (A) (A) (A) (A) (A) (A) (A)
       Virtual   (A) (A) (A) (A) (A) (A) (A) (A) (A) (A) (A) (A)
                 (A) (A) (A) (A) (A) (A) (A) (A) (A) (A) (A) (A)
                 (A) (A) (A) (A) (A) (A) (A)
 The electronic state is 1-A.
 Alpha  occ. eigenvalues --  -20.23378 -11.08288 -11.05297 -11.04321 -11.04106
 Alpha  occ. eigenvalues --  -11.03720 -11.03612 -11.03501 -11.03442 -11.03267
 Alpha  occ. eigenvalues --  -11.02191  -1.27516  -1.08095  -1.03831  -0.96461
 Alpha  occ. eigenvalues --   -0.94463  -0.89390  -0.88083  -0.80428  -0.78007
 Alpha  occ. eigenvalues --   -0.72978  -0.68044  -0.62743  -0.62014  -0.59262
 Alpha  occ. eigenvalues --   -0.57702  -0.55875  -0.54632  -0.53206  -0.51547
 Alpha  occ. eigenvalues --   -0.51342  -0.50011  -0.49502  -0.48173  -0.46804
 Alpha  occ. eigenvalues --   -0.45161  -0.43946  -0.43298  -0.42306  -0.41238
 Alpha  occ. eigenvalues --   -0.39784  -0.38506  -0.35921  -0.32894
 Alpha virt. eigenvalues --    0.53246   0.55672   0.57357   0.58513   0.60156
 Alpha virt. eigenvalues --    0.61701   0.63268   0.64434   0.64895   0.66289
 Alpha virt. eigenvalues --    0.67433   0.67564   0.70560   0.70683   0.71498
 Alpha virt. eigenvalues --    0.72323   0.73071   0.74581   0.75665   0.76555
 Alpha virt. eigenvalues --    0.76912   0.78122   0.78557   0.80008   0.80762
 Alpha virt. eigenvalues --    0.81167   0.82217   0.83501   0.85676   0.86273
 Alpha virt. eigenvalues --    0.87672
          Condensed to atoms (all electrons):
              1          2          3          4          5          6
     1  C    4.742338   0.364526  -0.000926   0.000461  -0.000219  -0.024237
     2  C    0.364526   4.745612  -0.020367  -0.020182  -0.005352   0.360224
     3  C   -0.000926  -0.020367   4.746823  -0.021541   0.355151  -0.003321
     4  C    0.000461  -0.020182  -0.021541   4.754791   0.361379   0.361820
     5  C   -0.000219  -0.005352   0.355151   0.361379   4.795058  -0.021569
     6  C   -0.024237   0.360224  -0.003321   0.361820  -0.021569   4.760266
     7  C   -0.023749   0.362046   0.359439  -0.008151  -0.020539  -0.022508
     8  O   -0.000241   0.000068   0.266126   0.000272  -0.019173   0.000010
     9  C    0.000002   0.000010  -0.020812  -0.019479   0.358754   0.000623
    10  C    0.000000   0.000000  -0.001422  -0.002797  -0.020238   0.000011
    11  C    0.000000   0.000000   0.000639  -0.001375  -0.022228   0.000005
    12  H    0.382388  -0.020075   0.000017  -0.000019   0.000009   0.001267
    13  H    0.382025  -0.020422  -0.000007   0.000008   0.000006  -0.002051
    14  H    0.382641  -0.020047   0.000006   0.000094  -0.000504  -0.002104
    15  H   -0.025929   0.383757   0.001223   0.001123   0.000021  -0.023925
    16  H   -0.000007   0.001209   0.376292   0.000348  -0.024601   0.000031
    17  H   -0.000015   0.001146   0.001159   0.383273  -0.020171  -0.021941
    18  H   -0.000013  -0.000306  -0.002515   0.382135  -0.022607  -0.022910
    19  H   -0.000588   0.000110  -0.023742  -0.023992   0.379693  -0.002807
    20  H   -0.006485  -0.021741   0.000029  -0.022695  -0.000646   0.382618
    21  H    0.001285  -0.021982   0.000003  -0.022955   0.001276   0.382584
    22  H   -0.002905  -0.020785  -0.020624   0.000079   0.001016   0.001174
    23  H    0.001356  -0.023270  -0.021869  -0.000487   0.000156  -0.001480
    24  H    0.000009  -0.000030  -0.040473   0.000004  -0.002569  -0.000002
    25  H    0.000000  -0.000001  -0.002988   0.001116  -0.023528  -0.000014
    26  H    0.000000   0.000000   0.000037  -0.000617  -0.001332   0.000004
    27  H    0.000000   0.000000  -0.000656  -0.000072  -0.001773  -0.000002
    28  H    0.000000   0.000000   0.000013   0.000030   0.001115   0.000000
    29  H    0.000000   0.000000  -0.000003  -0.000551  -0.001382  -0.000004
    30  H    0.000000   0.000000   0.000023   0.000041  -0.002571  -0.000002
    31  H    0.000000   0.000000  -0.000014   0.000009   0.001175   0.000000
              7          8          9         10         11         12
     1  C   -0.023749  -0.000241   0.000002   0.000000   0.000000   0.382388
     2  C    0.362046   0.000068   0.000010   0.000000   0.000000  -0.020075
     3  C    0.359439   0.266126  -0.020812  -0.001422   0.000639   0.000017
     4  C   -0.008151   0.000272  -0.019479  -0.002797  -0.001375  -0.000019
     5  C   -0.020539  -0.019173   0.358754  -0.020238  -0.022228   0.000009
     6  C   -0.022508   0.000010   0.000623   0.000011   0.000005   0.001267
     7  C    4.761629  -0.018836   0.000561   0.000009  -0.000004  -0.002567
     8  O   -0.018836   7.851797  -0.000121   0.000006  -0.000001   0.000002
     9  C    0.000561  -0.000121   4.743520   0.364526   0.364577   0.000000
    10  C    0.000009   0.000006   0.364526   4.742884  -0.026122   0.000000
    11  C   -0.000004  -0.000001   0.364577  -0.026122   4.743505   0.000000
    12  H   -0.002567   0.000002   0.000000   0.000000   0.000000   0.628323
    13  H    0.001259   0.000004   0.000000   0.000000   0.000000  -0.021838
    14  H   -0.001402   0.000075   0.000003   0.000000   0.000000  -0.021334
    15  H   -0.023664  -0.000007   0.000000   0.000000   0.000000  -0.001980
    16  H   -0.025768  -0.019966  -0.004234  -0.000771   0.000021  -0.000003
    17  H    0.000072  -0.000005  -0.001986  -0.000076  -0.000595   0.000001
    18  H   -0.000352   0.000001  -0.001291  -0.000635   0.000044   0.000001
    19  H    0.000087  -0.002130  -0.024437   0.001145  -0.003901   0.000009
    20  H    0.001077   0.000000  -0.000003   0.000000   0.000002   0.000102
    21  H    0.000680   0.000000  -0.000014   0.000000   0.000000  -0.000038
    22  H    0.381761  -0.001452  -0.000010   0.000000   0.000000   0.000169
    23  H    0.381080   0.000619  -0.000008   0.000007   0.000000   0.000032
    24  H    0.002635   0.256831  -0.000318   0.000010  -0.000023   0.000001
    25  H    0.000016  -0.000240   0.380696  -0.024762  -0.025015   0.000000
    26  H   -0.000002   0.000000  -0.020261   0.382666  -0.002599   0.000000
    27  H   -0.000017   0.000004  -0.019686   0.382213   0.001321   0.000000
    28  H    0.000000   0.000000  -0.020000   0.382424  -0.002203   0.000000
    29  H    0.000000   0.000000  -0.020117  -0.002423   0.382528   0.000000
    30  H    0.000000   0.000000  -0.020243   0.001315   0.382198   0.000000
    31  H    0.000000   0.000000  -0.019972  -0.002154   0.382373   0.000000
             13         14         15         16         17         18
     1  C    0.382025   0.382641  -0.025929  -0.000007  -0.000015  -0.000013
     2  C   -0.020422  -0.020047   0.383757   0.001209   0.001146  -0.000306
     3  C   -0.000007   0.000006   0.001223   0.376292   0.001159  -0.002515
     4  C    0.000008   0.000094   0.001123   0.000348   0.383273   0.382135
     5  C    0.000006  -0.000504   0.000021  -0.024601  -0.020171  -0.022607
     6  C   -0.002051  -0.002104  -0.023925   0.000031  -0.021941  -0.022910
     7  C    0.001259  -0.001402  -0.023664  -0.025768   0.000072  -0.000352
     8  O    0.000004   0.000075  -0.000007  -0.019966  -0.000005   0.000001
     9  C    0.000000   0.000003   0.000000  -0.004234  -0.001986  -0.001291
    10  C    0.000000   0.000000   0.000000  -0.000771  -0.000076  -0.000635
    11  C    0.000000   0.000000   0.000000   0.000021  -0.000595   0.000044
    12  H   -0.021838  -0.021334  -0.001980  -0.000003   0.000001   0.000001
    13  H    0.636797  -0.022244  -0.003181   0.000001   0.000000   0.000000
    14  H   -0.022244   0.624581   0.001954   0.000003  -0.000008  -0.000001
    15  H   -0.003181   0.001954   0.654556  -0.000035  -0.000027   0.000007
    16  H    0.000001   0.000003  -0.000035   0.663354  -0.000030   0.000239
    17  H    0.000000  -0.000008  -0.000027  -0.000030   0.638858  -0.023910
    18  H    0.000000  -0.000001   0.000007   0.000239  -0.023910   0.646584
    19  H    0.000013  -0.000337  -0.000002   0.001765  -0.001775   0.001950
    20  H   -0.000012   0.000046   0.001116   0.000001  -0.004858   0.001964
    21  H    0.000061   0.000004  -0.007341   0.000002  -0.000394  -0.005013
    22  H    0.000036   0.000016  -0.001590  -0.000167   0.000000   0.000001
    23  H   -0.000038  -0.000006  -0.003583  -0.005170   0.000011  -0.000548
    24  H   -0.000001   0.000022   0.000002  -0.003511   0.000000   0.000000
    25  H    0.000000   0.000000   0.000000   0.000035   0.000009  -0.000006
    26  H    0.000000   0.000000   0.000000   0.000030  -0.000053  -0.000789
    27  H    0.000000   0.000000   0.000000  -0.000272   0.000017  -0.000030
    28  H    0.000000   0.000000   0.000000  -0.000024  -0.000007   0.000010
    29  H    0.000000   0.000000   0.000000   0.000000  -0.000501   0.000031
    30  H    0.000000   0.000000   0.000000   0.000000   0.000036   0.000000
    31  H    0.000000   0.000000   0.000000  -0.000001  -0.000005  -0.000002
             19         20         21         22         23         24
     1  C   -0.000588  -0.006485   0.001285  -0.002905   0.001356   0.000009
     2  C    0.000110  -0.021741  -0.021982  -0.020785  -0.023270  -0.000030
     3  C   -0.023742   0.000029   0.000003  -0.020624  -0.021869  -0.040473
     4  C   -0.023992  -0.022695  -0.022955   0.000079  -0.000487   0.000004
     5  C    0.379693  -0.000646   0.001276   0.001016   0.000156  -0.002569
     6  C   -0.002807   0.382618   0.382584   0.001174  -0.001480  -0.000002
     7  C    0.000087   0.001077   0.000680   0.381761   0.381080   0.002635
     8  O   -0.002130   0.000000   0.000000  -0.001452   0.000619   0.256831
     9  C   -0.024437  -0.000003  -0.000014  -0.000010  -0.000008  -0.000318
    10  C    0.001145   0.000000   0.000000   0.000000   0.000007   0.000010
    11  C   -0.003901   0.000002   0.000000   0.000000   0.000000  -0.000023
    12  H    0.000009   0.000102  -0.000038   0.000169   0.000032   0.000001
    13  H    0.000013  -0.000012   0.000061   0.000036  -0.000038  -0.000001
    14  H   -0.000337   0.000046   0.000004   0.000016  -0.000006   0.000022
    15  H   -0.000002   0.001116  -0.007341  -0.001590  -0.003583   0.000002
    16  H    0.001765   0.000001   0.000002  -0.000167  -0.005170  -0.003511
    17  H   -0.001775  -0.004858  -0.000394   0.000000   0.000011   0.000000
    18  H    0.001950   0.001964  -0.005013   0.000001  -0.000548   0.000000
    19  H    0.647269   0.000335   0.000023  -0.000036  -0.000002   0.000029
    20  H    0.000335   0.643575  -0.024172  -0.000032  -0.000002   0.000000
    21  H    0.000023  -0.024172   0.647423  -0.000024   0.000145   0.000000
    22  H   -0.000036  -0.000032  -0.000024   0.621298  -0.022266   0.000104
    23  H   -0.000002  -0.000002   0.000145  -0.022266   0.645460  -0.000085
    24  H    0.000029   0.000000   0.000000   0.000104  -0.000085   0.613810
    25  H   -0.001305   0.000000   0.000000  -0.000001   0.000000   0.000152
    26  H    0.000000   0.000000   0.000001   0.000000   0.000000   0.000000
    27  H    0.000008   0.000000   0.000000   0.000001   0.000010  -0.000001
    28  H   -0.000029   0.000000   0.000000   0.000000   0.000000   0.000000
    29  H    0.000018   0.000002   0.000001   0.000000   0.000000   0.000000
    30  H    0.000163   0.000000   0.000000   0.000000   0.000000  -0.000001
    31  H    0.000047   0.000000   0.000000   0.000000   0.000000   0.000001
             25         26         27         28         29         30
     1  C    0.000000   0.000000   0.000000   0.000000   0.000000   0.000000
     2  C   -0.000001   0.000000   0.000000   0.000000   0.000000   0.000000
     3  C   -0.002988   0.000037  -0.000656   0.000013  -0.000003   0.000023
     4  C    0.001116  -0.000617  -0.000072   0.000030  -0.000551   0.000041
     5  C   -0.023528  -0.001332  -0.001773   0.001115  -0.001382  -0.002571
     6  C   -0.000014   0.000004  -0.000002   0.000000  -0.000004  -0.000002
     7  C    0.000016  -0.000002  -0.000017   0.000000   0.000000   0.000000
     8  O   -0.000240   0.000000   0.000004   0.000000   0.000000   0.000000
     9  C    0.380696  -0.020261  -0.019686  -0.020000  -0.020117  -0.020243
    10  C   -0.024762   0.382666   0.382213   0.382424  -0.002423   0.001315
    11  C   -0.025015  -0.002599   0.001321  -0.002203   0.382528   0.382198
    12  H    0.000000   0.000000   0.000000   0.000000   0.000000   0.000000
    13  H    0.000000   0.000000   0.000000   0.000000   0.000000   0.000000
    14  H    0.000000   0.000000   0.000000   0.000000   0.000000   0.000000
    15  H    0.000000   0.000000   0.000000   0.000000   0.000000   0.000000
    16  H    0.000035   0.000030  -0.000272  -0.000024   0.000000   0.000000
    17  H    0.000009  -0.000053   0.000017  -0.000007  -0.000501   0.000036
    18  H   -0.000006  -0.000789  -0.000030   0.000010   0.000031   0.000000
    19  H   -0.001305   0.000000   0.000008  -0.000029   0.000018   0.000163
    20  H    0.000000   0.000000   0.000000   0.000000   0.000002   0.000000
    21  H    0.000000   0.000001   0.000000   0.000000   0.000001   0.000000
    22  H   -0.000001   0.000000   0.000001   0.000000   0.000000   0.000000
    23  H    0.000000   0.000000   0.000010   0.000000   0.000000   0.000000
    24  H    0.000152   0.000000  -0.000001   0.000000   0.000000  -0.000001
    25  H    0.662675   0.001898  -0.001783  -0.002878   0.001918  -0.002040
    26  H    0.001898   0.628110  -0.021708  -0.021949   0.000347   0.000019
    27  H   -0.001783  -0.021708   0.630816  -0.021894   0.000015  -0.000037
    28  H   -0.002878  -0.021949  -0.021894   0.630054  -0.000008   0.000025
    29  H    0.001918   0.000347   0.000015  -0.000008   0.628818  -0.021616
    30  H   -0.002040   0.000019  -0.000037   0.000025  -0.021616   0.631063
    31  H   -0.002825  -0.000018   0.000024   0.000093  -0.021940  -0.021725
             31
     1  C    0.000000
     2  C    0.000000
     3  C   -0.000014
     4  C    0.000009
     5  C    0.001175
     6  C    0.000000
     7  C    0.000000
     8  O    0.000000
     9  C   -0.019972
    10  C   -0.002154
    11  C    0.382373
    12  H    0.000000
    13  H    0.000000
    14  H    0.000000
    15  H    0.000000
    16  H   -0.000001
    17  H   -0.000005
    18  H   -0.000002
    19  H    0.000047
    20  H    0.000000
    21  H    0.000000
    22  H    0.000000
    23  H    0.000000
    24  H    0.000001
    25  H   -0.002825
    26  H   -0.000018
    27  H    0.000024
    28  H    0.000093
    29  H   -0.021940
    30  H   -0.021725
    31  H    0.630452
 Mulliken atomic charges:
              1
     1  C   -0.171714
     2  C   -0.024145
     3  C    0.074301
     4  C   -0.102071
     5  C   -0.043809
     6  C   -0.101759
     7  C   -0.104792
     8  O   -0.313644
     9  C   -0.020280
    10  C   -0.175815
    11  C   -0.173148
    12  H    0.055534
    13  H    0.049585
    14  H    0.058543
    15  H    0.047504
    16  H    0.041231
    17  H    0.051775
    18  H    0.047964
    19  H    0.052420
    20  H    0.049779
    21  H    0.048445
    22  H    0.064238
    23  H    0.049939
    24  H    0.173404
    25  H    0.038869
    26  H    0.056216
    27  H    0.053502
    28  H    0.055227
    29  H    0.054867
    30  H    0.053352
    31  H    0.054480
 Sum of Mulliken atomic charges =   0.00000
 Mulliken charges with hydrogens summed into heavy atoms:
              1
     1  C   -0.008051
     2  C    0.023358
     3  C    0.115532
     4  C   -0.002332
     5  C    0.008612
     6  C   -0.003536
     7  C    0.009386
     8  O   -0.140240
     9  C    0.018589
    10  C   -0.010869
    11  C   -0.010449
 Sum of Mulliken charges with hydrogens summed into heavy atoms =   0.00000
 Electronic spatial extent (au):  <R**2>=           2027.0790
 Charge=              0.0000 electrons
 Dipole moment (field-independent basis, Debye):
    X=              1.2526    Y=             -0.5804    Z=             -0.3820  Tot=              1.4324
 Quadrupole moment (field-independent basis, Debye-Ang):
   XX=            -68.0598   YY=            -68.9662   ZZ=            -67.3008
   XY=              3.2980   XZ=              1.5908   YZ=             -0.2825
 Traceless Quadrupole moment (field-independent basis, Debye-Ang):
   XX=              0.0491   YY=             -0.8573   ZZ=              0.8082
   XY=              3.2980   XZ=              1.5908   YZ=             -0.2825
 Octapole moment (field-independent basis, Debye-Ang**2):
  XXX=             -2.2907  YYY=              9.0561  ZZZ=              3.2135  XYY=              7.0164
  XXY=              4.3294  XXZ=             -0.7202  XZZ=             -1.1869  YZZ=              4.4095
  YYZ=              1.0091  XYZ=              3.2546
 Hexadecapole moment (field-independent basis, Debye-Ang**3):
 XXXX=          -1635.7037 YYYY=           -552.5706 ZZZZ=           -382.2896 XXXY=             -2.4826
 XXXZ=              4.2209 YYYX=              9.7478 YYYZ=              9.8722 ZZZX=              0.9620
 ZZZY=              8.5551 XXYY=           -364.9460 XXZZ=           -347.2729 YYZZ=           -152.2071
 XXYZ=              1.8205 YYXZ=              4.8439 ZZXY=              2.9892
 N-N= 6.986485748618D+02 E-N=-2.469303208098D+03  KE= 4.555500246686D+02
 ******************************Gaussian NBO Version 3.1******************************
             N A T U R A L   A T O M I C   O R B I T A L   A N D
          N A T U R A L   B O N D   O R B I T A L   A N A L Y S I S
 ******************************Gaussian NBO Version 3.1******************************
       /RESON  / : Allow strongly delocalized NBO set
       /NLMO   / : Form Natural Localized Molecular Orbitals
       /NMR /    : Analyze NMR Sheilding Tensor 

 Analyzing the SCF density

 Job title: comment                                                         

 Storage needed:     19864 in NPA,     23691 in NBO,     45933 in NLMO (  33549317 available)


 NATURAL POPULATIONS:  Natural atomic orbital occupancies 
                                                          
   NAO  Atom  No  lang   Type(AO)    Occupancy      Energy
 ----------------------------------------------------------
     1    C    1  S      Cor( 1S)     1.99997     -10.95552
     2    C    1  S      Val( 2S)     1.08105      -0.17280
     3    C    1  px     Val( 2p)     1.02425       0.09211
     4    C    1  py     Val( 2p)     1.02415       0.09464
     5    C    1  pz     Val( 2p)     0.99768       0.09841

     6    C    2  S      Cor( 1S)     1.99997     -10.98423
     7    C    2  S      Val( 2S)     1.08126      -0.18833
     8    C    2  px     Val( 2p)     0.97763       0.10944
     9    C    2  py     Val( 2p)     0.95727       0.11574
    10    C    2  pz     Val( 2p)     0.96993       0.11254

    11    C    3  S      Cor( 1S)     1.99988     -11.03222
    12    C    3  S      Val( 2S)     1.09089      -0.21635
    13    C    3  px     Val( 2p)     0.97017       0.08741
    14    C    3  py     Val( 2p)     0.89728       0.10799
    15    C    3  pz     Val( 2p)     0.89880       0.11153

    16    C    4  S      Cor( 1S)     1.99996     -10.97544
    17    C    4  S      Val( 2S)     1.08283      -0.18873
    18    C    4  px     Val( 2p)     0.98420       0.09426
    19    C    4  py     Val( 2p)     0.98628       0.09767
    20    C    4  pz     Val( 2p)     1.01116       0.09243

    21    C    5  S      Cor( 1S)     1.99995     -10.98821
    22    C    5  S      Val( 2S)     1.10338      -0.21284
    23    C    5  px     Val( 2p)     0.95950       0.10140
    24    C    5  py     Val( 2p)     0.96469       0.10102
    25    C    5  pz     Val( 2p)     0.99602       0.09612

    26    C    6  S      Cor( 1S)     1.99996     -10.97141
    27    C    6  S      Val( 2S)     1.08601      -0.18690
    28    C    6  px     Val( 2p)     0.96779       0.10583
    29    C    6  py     Val( 2p)     0.99048       0.09723
    30    C    6  pz     Val( 2p)     1.01977       0.09447

    31    C    7  S      Cor( 1S)     1.99996     -10.97497
    32    C    7  S      Val( 2S)     1.09096      -0.19431
    33    C    7  px     Val( 2p)     0.98674       0.09576
    34    C    7  py     Val( 2p)     1.00275       0.09438
    35    C    7  pz     Val( 2p)     1.00033       0.09085

    36    O    8  S      Cor( 1S)     1.99999     -20.13767
    37    O    8  S      Val( 2S)     1.75112      -0.99653
    38    O    8  px     Val( 2p)     1.43478      -0.16172
    39    O    8  py     Val( 2p)     1.56184      -0.19682
    40    O    8  pz     Val( 2p)     1.58718      -0.20597

    41    C    9  S      Cor( 1S)     1.99996     -10.99693
    42    C    9  S      Val( 2S)     1.08499      -0.20213
    43    C    9  px     Val( 2p)     0.95508       0.10425
    44    C    9  py     Val( 2p)     0.98354       0.09803
    45    C    9  pz     Val( 2p)     0.95478       0.10479

    46    C   10  S      Cor( 1S)     1.99997     -10.96871
    47    C   10  S      Val( 2S)     1.08001      -0.18599
    48    C   10  px     Val( 2p)     1.02285       0.07870
    49    C   10  py     Val( 2p)     1.03054       0.07929
    50    C   10  pz     Val( 2p)     0.99872       0.08449

    51    C   11  S      Cor( 1S)     1.99997     -10.96823
    52    C   11  S      Val( 2S)     1.08118      -0.18621
    53    C   11  px     Val( 2p)     1.02014       0.08046
    54    C   11  py     Val( 2p)     1.01815       0.08269
    55    C   11  pz     Val( 2p)     1.00957       0.08230

    56    H   12  S      Val( 1S)     0.96199       0.08621

    57    H   13  S      Val( 1S)     0.96744       0.07952

    58    H   14  S      Val( 1S)     0.95966       0.08998

    59    H   15  S      Val( 1S)     0.97673       0.07077

    60    H   16  S      Val( 1S)     0.99483       0.05168

    61    H   17  S      Val( 1S)     0.96909       0.07172

    62    H   18  S      Val( 1S)     0.97282       0.06880

    63    H   19  S      Val( 1S)     0.97265       0.06694

    64    H   20  S      Val( 1S)     0.97120       0.07367

    65    H   21  S      Val( 1S)     0.97226       0.07246

    66    H   22  S      Val( 1S)     0.95698       0.08065

    67    H   23  S      Val( 1S)     0.97030       0.06799

    68    H   24  S      Val( 1S)     0.81431       0.07719

    69    H   25  S      Val( 1S)     0.98573       0.05314

    70    H   26  S      Val( 1S)     0.96124       0.07310

    71    H   27  S      Val( 1S)     0.96390       0.07231

    72    H   28  S      Val( 1S)     0.96186       0.07108

    73    H   29  S      Val( 1S)     0.96277       0.07345

    74    H   30  S      Val( 1S)     0.96408       0.07139

    75    H   31  S      Val( 1S)     0.96286       0.07126


 Summary of Natural Population Analysis:                  
                                                          
                                       Natural Population 
                Natural  -----------------------------------------------
    Atom  No    Charge         Core      Valence    Rydberg      Total
 -----------------------------------------------------------------------
      C    1   -0.12710      1.99997     4.12713    0.00000     6.12710
      C    2    0.01395      1.99997     3.98609    0.00000     5.98605
      C    3    0.14298      1.99988     3.85714    0.00000     5.85702
      C    4   -0.06445      1.99996     4.06449    0.00000     6.06445
      C    5   -0.02355      1.99995     4.02360    0.00000     6.02355
      C    6   -0.06401      1.99996     4.06405    0.00000     6.06401
      C    7   -0.08074      1.99996     4.08078    0.00000     6.08074
      O    8   -0.33492      1.99999     6.33492    0.00000     8.33492
      C    9    0.02165      1.99996     3.97839    0.00000     5.97835
      C   10   -0.13209      1.99997     4.13212    0.00000     6.13209
      C   11   -0.12901      1.99997     4.12904    0.00000     6.12901
      H   12    0.03801      0.00000     0.96199    0.00000     0.96199
      H   13    0.03256      0.00000     0.96744    0.00000     0.96744
      H   14    0.04034      0.00000     0.95966    0.00000     0.95966
      H   15    0.02327      0.00000     0.97673    0.00000     0.97673
      H   16    0.00517      0.00000     0.99483    0.00000     0.99483
      H   17    0.03091      0.00000     0.96909    0.00000     0.96909
      H   18    0.02718      0.00000     0.97282    0.00000     0.97282
      H   19    0.02735      0.00000     0.97265    0.00000     0.97265
      H   20    0.02880      0.00000     0.97120    0.00000     0.97120
      H   21    0.02774      0.00000     0.97226    0.00000     0.97226
      H   22    0.04302      0.00000     0.95698    0.00000     0.95698
      H   23    0.02970      0.00000     0.97030    0.00000     0.97030
      H   24    0.18569      0.00000     0.81431    0.00000     0.81431
      H   25    0.01427      0.00000     0.98573    0.00000     0.98573
      H   26    0.03876      0.00000     0.96124    0.00000     0.96124
      H   27    0.03610      0.00000     0.96390    0.00000     0.96390
      H   28    0.03814      0.00000     0.96186    0.00000     0.96186
      H   29    0.03723      0.00000     0.96277    0.00000     0.96277
      H   30    0.03592      0.00000     0.96408    0.00000     0.96408
      H   31    0.03714      0.00000     0.96286    0.00000     0.96286
 =======================================================================
   * Total *    0.00000     21.99954    66.00046    0.00000    88.00000

                                 Natural Population      
 --------------------------------------------------------
   Core                      21.99954 ( 99.9979% of  22)
   Valence                   66.00046 (100.0007% of  66)
   Natural Minimal Basis     88.00000 (100.0000% of  88)
   Natural Rydberg Basis      0.00000 (  0.0000% of  88)
 --------------------------------------------------------

    Atom  No          Natural Electron Configuration
 ----------------------------------------------------------------------------
      C    1      [core]2S( 1.08)2p( 3.05)
      C    2      [core]2S( 1.08)2p( 2.90)
      C    3      [core]2S( 1.09)2p( 2.77)
      C    4      [core]2S( 1.08)2p( 2.98)
      C    5      [core]2S( 1.10)2p( 2.92)
      C    6      [core]2S( 1.09)2p( 2.98)
      C    7      [core]2S( 1.09)2p( 2.99)
      O    8      [core]2S( 1.75)2p( 4.58)
      C    9      [core]2S( 1.08)2p( 2.89)
      C   10      [core]2S( 1.08)2p( 3.05)
      C   11      [core]2S( 1.08)2p( 3.05)
      H   12            1S( 0.96)
      H   13            1S( 0.97)
      H   14            1S( 0.96)
      H   15            1S( 0.98)
      H   16            1S( 0.99)
      H   17            1S( 0.97)
      H   18            1S( 0.97)
      H   19            1S( 0.97)
      H   20            1S( 0.97)
      H   21            1S( 0.97)
      H   22            1S( 0.96)
      H   23            1S( 0.97)
      H   24            1S( 0.81)
      H   25            1S( 0.99)
      H   26            1S( 0.96)
      H   27            1S( 0.96)
      H   28            1S( 0.96)
      H   29            1S( 0.96)
      H   30            1S( 0.96)
      H   31            1S( 0.96)


 NATURAL BOND ORBITAL ANALYSIS:

                       Occupancies       Lewis Structure    Low   High
           Occ.    -------------------  -----------------   occ   occ
  Cycle   Thresh.   Lewis   Non-Lewis     CR  BD  3C  LP    (L)   (NL)   Dev
 =============================================================================
   1(1)    1.90    87.64411   0.35589     11  31   0   2     0      0    0.02
 -----------------------------------------------------------------------------

 Structure accepted: No low occupancy Lewis orbitals

 --------------------------------------------------------
   Core                     21.99954 ( 99.998% of  22)
   Valence Lewis            65.64457 ( 99.461% of  66)
  ==================       ============================
   Total Lewis              87.64411 ( 99.596% of  88)
  -----------------------------------------------------
   Valence non-Lewis         0.35589 (  0.404% of  88)
   Rydberg non-Lewis         0.00000 (  0.000% of  88)
  ==================       ============================
   Total non-Lewis           0.35589 (  0.404% of  88)
 --------------------------------------------------------


       (Occupancy)   Bond orbital/ Coefficients/ Hybrids
 ---------------------------------------------------------------------------------
     1. (1.99081) BD ( 1) C   1 - C   2  
                ( 50.71%)   0.7121* C   1 s( 25.77%)p 2.88( 74.23%)
                                            0.0001  0.5076  0.3378 -0.2428 -0.7545
                ( 49.29%)   0.7020* C   2 s( 25.09%)p 2.99( 74.91%)
                                            0.0000  0.5009 -0.2925  0.2581  0.7726
     2. (1.99496) BD ( 1) C   1 - H  12  
                ( 51.91%)   0.7205* C   1 s( 24.75%)p 3.04( 75.25%)
                                            0.0000  0.4975 -0.5271  0.6785 -0.1197
                ( 48.09%)   0.6934* H  12 s(100.00%)
                                            1.0000
     3. (1.99466) BD ( 1) C   1 - H  13  
                ( 51.62%)   0.7185* C   1 s( 24.50%)p 3.08( 75.50%)
                                            0.0000  0.4950 -0.4556 -0.6568  0.3405
                ( 48.38%)   0.6955* H  13 s(100.00%)
                                            1.0000
     4. (1.99524) BD ( 1) C   1 - H  14  
                ( 52.08%)   0.7216* C   1 s( 24.98%)p 3.00( 75.02%)
                                            0.0000  0.4998  0.6328  0.2219  0.5482
                ( 47.92%)   0.6923* H  14 s(100.00%)
                                            1.0000
     5. (1.98539) BD ( 1) C   2 - C   6  
                ( 49.48%)   0.7034* C   2 s( 25.23%)p 2.96( 74.77%)
                                            0.0000  0.5023  0.5555 -0.6546  0.1032
                ( 50.52%)   0.7108* C   6 s( 25.76%)p 2.88( 74.24%)
                                            0.0001  0.5076 -0.5102  0.6883 -0.0913
     6. (1.98581) BD ( 1) C   2 - C   7  
                ( 49.45%)   0.7032* C   2 s( 25.30%)p 2.95( 74.70%)
                                            0.0000  0.5030  0.3949  0.6586 -0.3966
                ( 50.55%)   0.7110* C   7 s( 25.22%)p 2.97( 74.78%)
                                            0.0001  0.5022 -0.3575 -0.6465  0.4495
     7. (1.98566) BD ( 1) C   2 - H  15  
                ( 51.06%)   0.7145* C   2 s( 24.37%)p 3.10( 75.63%)
                                            0.0000  0.4937 -0.6708 -0.2669 -0.4849
                ( 48.94%)   0.6996* H  15 s(100.00%)
                                            1.0000
     8. (1.98223) BD ( 1) C   3 - C   5  
                ( 50.05%)   0.7075* C   3 s( 26.10%)p 2.83( 73.90%)
                                            0.0001  0.5109  0.4400 -0.6430  0.3632
                ( 49.95%)   0.7067* C   5 s( 24.86%)p 3.02( 75.14%)
                                            0.0000  0.4986 -0.4373  0.6295 -0.4049
     9. (1.98660) BD ( 1) C   3 - C   7  
                ( 50.01%)   0.7072* C   3 s( 26.60%)p 2.76( 73.40%)
                                            0.0000  0.5158 -0.7493 -0.2775 -0.3090
                ( 49.99%)   0.7070* C   7 s( 25.30%)p 2.95( 74.70%)
                                            0.0001  0.5030  0.7356  0.2480  0.3799
    10. (1.98916) BD ( 1) C   3 - O   8  
                ( 40.98%)   0.6402* C   3 s( 21.82%)p 3.58( 78.18%)
                                            0.0000  0.4672 -0.1599  0.6112  0.6185
                ( 59.02%)   0.7682* O   8 s( 16.21%)p 5.17( 83.79%)
                                            0.0000  0.4026  0.2454 -0.6414 -0.6052
    11. (1.98855) BD ( 1) C   3 - H  16  
                ( 50.54%)   0.7109* C   3 s( 25.47%)p 2.93( 74.53%)
                                            0.0000  0.5047  0.4683  0.3688 -0.6245
                ( 49.46%)   0.7033* H  16 s(100.00%)
                                            1.0000
    12. (1.98539) BD ( 1) C   4 - C   5  
                ( 50.19%)   0.7084* C   4 s( 25.35%)p 2.95( 74.65%)
                                            0.0001  0.5035  0.2092  0.7615  0.3505
                ( 49.81%)   0.7058* C   5 s( 25.54%)p 2.91( 74.46%)
                                            0.0000  0.5054 -0.1782 -0.7603 -0.3672
    13. (1.98917) BD ( 1) C   4 - C   6  
                ( 50.14%)   0.7081* C   4 s( 25.05%)p 2.99( 74.95%)
                                            0.0000  0.5005 -0.8386 -0.1644  0.1388
                ( 49.86%)   0.7061* C   6 s( 25.27%)p 2.96( 74.73%)
                                            0.0000  0.5027  0.8253  0.2243 -0.1261
    14. (1.98935) BD ( 1) C   4 - H  17  
                ( 51.52%)   0.7178* C   4 s( 25.06%)p 2.99( 74.94%)
                                            0.0000  0.5006  0.4803 -0.6265  0.3553
                ( 48.48%)   0.6962* H  17 s(100.00%)
                                            1.0000
    15. (1.99087) BD ( 1) C   4 - H  18  
                ( 51.39%)   0.7168* C   4 s( 24.55%)p 3.07( 75.45%)
                                            0.0000  0.4954  0.1492  0.0252 -0.8554
                ( 48.61%)   0.6972* H  18 s(100.00%)
                                            1.0000
    16. (1.97960) BD ( 1) C   5 - C   9  
                ( 49.83%)   0.7059* C   5 s( 25.13%)p 2.98( 74.87%)
                                            0.0001  0.5013  0.8489  0.1593 -0.0518
                ( 50.17%)   0.7083* C   9 s( 25.36%)p 2.94( 74.64%)
                                            0.0001  0.5035 -0.8417 -0.1940 -0.0191
    17. (1.98249) BD ( 1) C   5 - H  19  
                ( 51.27%)   0.7160* C   5 s( 24.46%)p 3.09( 75.54%)
                                            0.0000  0.4946 -0.2375 -0.0192  0.8358
                ( 48.73%)   0.6981* H  19 s(100.00%)
                                            1.0000
    18. (1.99144) BD ( 1) C   6 - H  20  
                ( 51.46%)   0.7174* C   6 s( 24.73%)p 3.04( 75.27%)
                                            0.0000  0.4973 -0.0916 -0.3289  0.7976
                ( 48.54%)   0.6967* H  20 s(100.00%)
                                            1.0000
    19. (1.99141) BD ( 1) C   6 - H  21  
                ( 51.35%)   0.7166* C   6 s( 24.24%)p 3.13( 75.76%)
                                            0.0000  0.4923 -0.2241 -0.6064 -0.5828
                ( 48.65%)   0.6975* H  21 s(100.00%)
                                            1.0000
    20. (1.98786) BD ( 1) C   7 - H  22  
                ( 52.08%)   0.7217* C   7 s( 25.36%)p 2.94( 74.64%)
                                            0.0000  0.5036 -0.5483  0.6665 -0.0400
                ( 47.92%)   0.6922* H  22 s(100.00%)
                                            1.0000
    21. (1.98862) BD ( 1) C   7 - H  23  
                ( 51.39%)   0.7169* C   7 s( 24.13%)p 3.14( 75.87%)
                                            0.0000  0.4912  0.1743 -0.2762 -0.8075
                ( 48.61%)   0.6972* H  23 s(100.00%)
                                            1.0000
    22. (1.98928) BD ( 1) O   8 - H  24  
                ( 59.31%)   0.7701* O   8 s( 16.68%)p 5.00( 83.32%)
                                            0.0000  0.4084  0.8136  0.2812  0.3035
                ( 40.69%)   0.6379* H  24 s(100.00%)
                                            1.0000
    23. (1.99009) BD ( 1) C   9 - C  10  
                ( 49.11%)   0.7008* C   9 s( 25.30%)p 2.95( 74.70%)
                                            0.0000  0.5030  0.3444 -0.1114 -0.7848
                ( 50.89%)   0.7134* C  10 s( 25.82%)p 2.87( 74.18%)
                                            0.0001  0.5081 -0.3810  0.0872  0.7675
    24. (1.98924) BD ( 1) C   9 - C  11  
                ( 49.10%)   0.7007* C   9 s( 24.92%)p 3.01( 75.08%)
                                            0.0000  0.4992  0.4039 -0.5127  0.5699
                ( 50.90%)   0.7134* C  11 s( 25.73%)p 2.89( 74.27%)
                                            0.0001  0.5072 -0.4267  0.4773 -0.5769
    25. (1.98323) BD ( 1) C   9 - H  25  
                ( 50.60%)   0.7113* C   9 s( 24.43%)p 3.09( 75.57%)
                                            0.0000  0.4943  0.0991  0.8289  0.2426
                ( 49.40%)   0.7028* H  25 s(100.00%)
                                            1.0000
    26. (1.99521) BD ( 1) C  10 - H  26  
                ( 51.98%)   0.7210* C  10 s( 24.83%)p 3.03( 75.17%)
                                            0.0000  0.4983 -0.0188 -0.8316 -0.2447
                ( 48.02%)   0.6929* H  26 s(100.00%)
                                            1.0000
    27. (1.99418) BD ( 1) C  10 - H  27  
                ( 51.83%)   0.7199* C  10 s( 24.82%)p 3.03( 75.18%)
                                            0.0000  0.4982 -0.4142  0.4816 -0.5902
                ( 48.17%)   0.6940* H  27 s(100.00%)
                                            1.0000
    28. (1.99435) BD ( 1) C  10 - H  28  
                ( 51.89%)   0.7204* C  10 s( 24.53%)p 3.08( 75.47%)
                                            0.0000  0.4953  0.8264  0.2627  0.0525
                ( 48.11%)   0.6936* H  28 s(100.00%)
                                            1.0000
    29. (1.99502) BD ( 1) C  11 - H  29  
                ( 51.91%)   0.7205* C  11 s( 24.95%)p 3.01( 75.05%)
                                            0.0000  0.4995 -0.0352 -0.8356 -0.2261
                ( 48.09%)   0.6935* H  29 s(100.00%)
                                            1.0000
    30. (1.99497) BD ( 1) C  11 - H  30  
                ( 51.81%)   0.7198* C  11 s( 24.70%)p 3.05( 75.30%)
                                            0.0000  0.4970 -0.3578  0.0999  0.7842
                ( 48.19%)   0.6942* H  30 s(100.00%)
                                            1.0000
    31. (1.99474) BD ( 1) C  11 - H  31  
                ( 51.86%)   0.7201* C  11 s( 24.63%)p 3.06( 75.37%)
                                            0.0000  0.4963  0.8298  0.2531  0.0319
                ( 48.14%)   0.6939* H  31 s(100.00%)
                                            1.0000
    32. (1.99997) CR ( 1) C   1           s(100.00%)
                                            1.0000  0.0000  0.0000  0.0000  0.0001
    33. (1.99997) CR ( 1) C   2           s(100.00%)
                                            1.0000  0.0000  0.0000  0.0000  0.0000
    34. (1.99989) CR ( 1) C   3           s(100.00%)
                                            1.0000  0.0000 -0.0001  0.0001  0.0000
    35. (1.99996) CR ( 1) C   4           s(100.00%)
                                            1.0000  0.0000  0.0000 -0.0001  0.0000
    36. (1.99995) CR ( 1) C   5           s(100.00%)
                                            1.0000  0.0000  0.0000  0.0000  0.0000
    37. (1.99996) CR ( 1) C   6           s(100.00%)
                                            1.0000  0.0000  0.0000 -0.0001  0.0000
    38. (1.99995) CR ( 1) C   7           s(100.00%)
                                            1.0000  0.0000  0.0000  0.0000 -0.0001
    39. (1.99999) CR ( 1) O   8           s(100.00%)
                                            1.0000  0.0000  0.0000  0.0000  0.0000
    40. (1.99996) CR ( 1) C   9           s(100.00%)
                                            1.0000  0.0000  0.0001  0.0000  0.0000
    41. (1.99997) CR ( 1) C  10           s(100.00%)
                                            1.0000  0.0000  0.0001  0.0000 -0.0001
    42. (1.99997) CR ( 1) C  11           s(100.00%)
                                            1.0000  0.0000  0.0001  0.0000  0.0001
    43. (1.99263) LP ( 1) O   8           s( 66.96%)p 0.49( 33.04%)
                                            0.0000  0.8183 -0.5270  0.1409  0.1813
    44. (1.97638) LP ( 2) O   8           s(  0.16%)p99.99( 99.84%)
                                            0.0000  0.0402  0.0041  0.6998 -0.7132
    45. (0.01037) BD*( 1) C   1 - C   2  
                ( 49.29%)   0.7020* C   1 s( 25.77%)p 2.88( 74.23%)
                                           -0.0001 -0.5076 -0.3378  0.2428  0.7545
                ( 50.71%)  -0.7121* C   2 s( 25.09%)p 2.99( 74.91%)
                                            0.0000 -0.5009  0.2925 -0.2581 -0.7726
    46. (0.00520) BD*( 1) C   1 - H  12  
                ( 48.09%)   0.6934* C   1 s( 24.75%)p 3.04( 75.25%)
                                            0.0000 -0.4975  0.5271 -0.6785  0.1197
                ( 51.91%)  -0.7205* H  12 s(100.00%)
                                           -1.0000
    47. (0.00479) BD*( 1) C   1 - H  13  
                ( 48.38%)   0.6955* C   1 s( 24.50%)p 3.08( 75.50%)
                                            0.0000 -0.4950  0.4556  0.6568 -0.3405
                ( 51.62%)  -0.7185* H  13 s(100.00%)
                                           -1.0000
    48. (0.00662) BD*( 1) C   1 - H  14  
                ( 47.92%)   0.6923* C   1 s( 24.98%)p 3.00( 75.02%)
                                            0.0000 -0.4998 -0.6328 -0.2219 -0.5482
                ( 52.08%)  -0.7216* H  14 s(100.00%)
                                           -1.0000
    49. (0.01722) BD*( 1) C   2 - C   6  
                ( 50.52%)   0.7108* C   2 s( 25.23%)p 2.96( 74.77%)
                                            0.0000  0.5023  0.5555 -0.6546  0.1032
                ( 49.48%)  -0.7034* C   6 s( 25.76%)p 2.88( 74.24%)
                                            0.0001  0.5076 -0.5102  0.6883 -0.0913
    50. (0.01583) BD*( 1) C   2 - C   7  
                ( 50.55%)   0.7110* C   2 s( 25.30%)p 2.95( 74.70%)
                                            0.0000  0.5030  0.3949  0.6586 -0.3966
                ( 49.45%)  -0.7032* C   7 s( 25.22%)p 2.97( 74.78%)
                                            0.0001  0.5022 -0.3575 -0.6465  0.4495
    51. (0.00955) BD*( 1) C   2 - H  15  
                ( 48.94%)   0.6996* C   2 s( 24.37%)p 3.10( 75.63%)
                                            0.0000 -0.4937  0.6708  0.2669  0.4849
                ( 51.06%)  -0.7145* H  15 s(100.00%)
                                           -1.0000
    52. (0.03268) BD*( 1) C   3 - C   5  
                ( 49.95%)   0.7067* C   3 s( 26.10%)p 2.83( 73.90%)
                                           -0.0001 -0.5109 -0.4400  0.6430 -0.3632
                ( 50.05%)  -0.7075* C   5 s( 24.86%)p 3.02( 75.14%)
                                            0.0000 -0.4986  0.4373 -0.6295  0.4049
    53. (0.02251) BD*( 1) C   3 - C   7  
                ( 49.99%)   0.7070* C   3 s( 26.60%)p 2.76( 73.40%)
                                            0.0000 -0.5158  0.7493  0.2775  0.3090
                ( 50.01%)  -0.7072* C   7 s( 25.30%)p 2.95( 74.70%)
                                           -0.0001 -0.5030 -0.7356 -0.2480 -0.3799
    54. (0.02140) BD*( 1) C   3 - O   8  
                ( 59.02%)   0.7682* C   3 s( 21.82%)p 3.58( 78.18%)
                                            0.0000  0.4672 -0.1599  0.6112  0.6185
                ( 40.98%)  -0.6402* O   8 s( 16.21%)p 5.17( 83.79%)
                                            0.0000  0.4026  0.2454 -0.6414 -0.6052
    55. (0.02242) BD*( 1) C   3 - H  16  
                ( 49.46%)   0.7033* C   3 s( 25.47%)p 2.93( 74.53%)
                                            0.0000 -0.5047 -0.4683 -0.3688  0.6245
                ( 50.54%)  -0.7109* H  16 s(100.00%)
                                           -1.0000
    56. (0.01586) BD*( 1) C   4 - C   5  
                ( 49.81%)   0.7058* C   4 s( 25.35%)p 2.95( 74.65%)
                                           -0.0001 -0.5035 -0.2092 -0.7615 -0.3505
                ( 50.19%)  -0.7084* C   5 s( 25.54%)p 2.91( 74.46%)
                                            0.0000 -0.5054  0.1782  0.7603  0.3672
    57. (0.01130) BD*( 1) C   4 - C   6  
                ( 49.86%)   0.7061* C   4 s( 25.05%)p 2.99( 74.95%)
                                            0.0000 -0.5005  0.8386  0.1644 -0.1388
                ( 50.14%)  -0.7081* C   6 s( 25.27%)p 2.96( 74.73%)
                                            0.0000 -0.5027 -0.8253 -0.2243  0.1261
    58. (0.00918) BD*( 1) C   4 - H  17  
                ( 48.48%)   0.6962* C   4 s( 25.06%)p 2.99( 74.94%)
                                            0.0000 -0.5006 -0.4803  0.6265 -0.3553
                ( 51.52%)  -0.7178* H  17 s(100.00%)
                                           -1.0000
    59. (0.00972) BD*( 1) C   4 - H  18  
                ( 48.61%)   0.6972* C   4 s( 24.55%)p 3.07( 75.45%)
                                            0.0000 -0.4954 -0.1492 -0.0252  0.8554
                ( 51.39%)  -0.7168* H  18 s(100.00%)
                                           -1.0000
    60. (0.02222) BD*( 1) C   5 - C   9  
                ( 50.17%)   0.7083* C   5 s( 25.13%)p 2.98( 74.87%)
                                            0.0001  0.5013  0.8489  0.1593 -0.0518
                ( 49.83%)  -0.7059* C   9 s( 25.36%)p 2.94( 74.64%)
                                            0.0001  0.5035 -0.8417 -0.1940 -0.0191
    61. (0.01275) BD*( 1) C   5 - H  19  
                ( 48.73%)   0.6981* C   5 s( 24.46%)p 3.09( 75.54%)
                                            0.0000 -0.4946  0.2375  0.0192 -0.8358
                ( 51.27%)  -0.7160* H  19 s(100.00%)
                                           -1.0000
    62. (0.00883) BD*( 1) C   6 - H  20  
                ( 48.54%)   0.6967* C   6 s( 24.73%)p 3.04( 75.27%)
                                            0.0000 -0.4973  0.0916  0.3289 -0.7976
                ( 51.46%)  -0.7174* H  20 s(100.00%)
                                           -1.0000
    63. (0.00680) BD*( 1) C   6 - H  21  
                ( 48.65%)   0.6975* C   6 s( 24.24%)p 3.13( 75.76%)
                                            0.0000 -0.4923  0.2241  0.6064  0.5828
                ( 51.35%)  -0.7166* H  21 s(100.00%)
                                           -1.0000
    64. (0.00855) BD*( 1) C   7 - H  22  
                ( 47.92%)   0.6922* C   7 s( 25.36%)p 2.94( 74.64%)
                                            0.0000 -0.5036  0.5483 -0.6665  0.0400
                ( 52.08%)  -0.7217* H  22 s(100.00%)
                                           -1.0000
    65. (0.00710) BD*( 1) C   7 - H  23  
                ( 48.61%)   0.6972* C   7 s( 24.13%)p 3.14( 75.87%)
                                            0.0000 -0.4912 -0.1743  0.2762  0.8075
                ( 51.39%)  -0.7169* H  23 s(100.00%)
                                           -1.0000
    66. (0.00818) BD*( 1) O   8 - H  24  
                ( 40.69%)   0.6379* O   8 s( 16.68%)p 5.00( 83.32%)
                                            0.0000 -0.4084 -0.8136 -0.2812 -0.3035
                ( 59.31%)  -0.7701* H  24 s(100.00%)
                                           -1.0000
    67. (0.01082) BD*( 1) C   9 - C  10  
                ( 50.89%)   0.7134* C   9 s( 25.30%)p 2.95( 74.70%)
                                            0.0000  0.5030  0.3444 -0.1114 -0.7848
                ( 49.11%)  -0.7008* C  10 s( 25.82%)p 2.87( 74.18%)
                                            0.0001  0.5081 -0.3810  0.0872  0.7675
    68. (0.01017) BD*( 1) C   9 - C  11  
                ( 50.90%)   0.7134* C   9 s( 24.92%)p 3.01( 75.08%)
                                            0.0000  0.4992  0.4039 -0.5127  0.5699
                ( 49.10%)  -0.7007* C  11 s( 25.73%)p 2.89( 74.27%)
                                            0.0001  0.5072 -0.4267  0.4773 -0.5769
    69. (0.01194) BD*( 1) C   9 - H  25  
                ( 49.40%)   0.7028* C   9 s( 24.43%)p 3.09( 75.57%)
                                            0.0000 -0.4943 -0.0991 -0.8289 -0.2426
                ( 50.60%)  -0.7113* H  25 s(100.00%)
                                           -1.0000
    70. (0.00614) BD*( 1) C  10 - H  26  
                ( 48.02%)   0.6929* C  10 s( 24.83%)p 3.03( 75.17%)
                                            0.0000 -0.4983  0.0188  0.8316  0.2447
                ( 51.98%)  -0.7210* H  26 s(100.00%)
                                           -1.0000
    71. (0.00637) BD*( 1) C  10 - H  27  
                ( 48.17%)   0.6940* C  10 s( 24.82%)p 3.03( 75.18%)
                                            0.0000 -0.4982  0.4142 -0.4816  0.5902
                ( 51.83%)  -0.7199* H  27 s(100.00%)
                                           -1.0000
    72. (0.00475) BD*( 1) C  10 - H  28  
                ( 48.11%)   0.6936* C  10 s( 24.53%)p 3.08( 75.47%)
                                            0.0000 -0.4953 -0.8264 -0.2627 -0.0525
[...]
   10      25.5394        9.0629      16.4766        14.9281      10.6113
   11      -0.2367       -0.6093       0.3727        -1.5552       1.3186
   17      -0.6866       -0.9527       0.2661        -1.7468       1.0602
   20      -0.2977       -1.0299       0.7322        -1.3380       1.0403
   22      23.4556       11.3660      12.0896         9.0846      14.3711
   39     271.1766       -0.0061     271.1828        -0.0033     271.1799
   43      34.0117        0.8539      33.1579        -3.4646      37.4764
   44       0.8212      -37.6059      38.4271       -39.1644      39.9856
 Sum      353.7837      -18.9212     372.7049       -23.2596     377.0433

 Contributions to Isotropic shielding for atom    9 (   213.9776 ppm):
                         Standard Origin              Atomic Origin
 NLMO      Total    Paramagnetic  Diamagnetic   Paramagnetic  Diamagnetic
   11      -0.2078       -0.5650       0.3572        -1.0968       0.8890
   16       5.6525       -9.8207      15.4732        -2.1870       7.8395
   17       0.3996       -0.1018       0.5014        -0.6169       1.0165
   23      -1.3114       -5.9986       4.6872        -8.8823       7.5709
   24      -1.6721       -5.0694       3.3973        -9.1948       7.5227
   25       6.2115       -1.8384       8.0499        -4.5174      10.7289
   26       0.9216       -0.2802       1.2018        -0.1029       1.0245
   27       0.6962       -0.5632       1.2594        -0.3165       1.0127
   28       0.6005       -0.3022       0.9027        -0.4393       1.0397
   29       1.0092       -0.2923       1.3014        -0.0144       1.0236
   30       0.6935       -0.6715       1.3650        -0.3397       1.0332
   31       0.6300       -0.3469       0.9768        -0.4055       1.0355
   40     199.9278       -0.0011     199.9289         0.0018     199.9260
 Sum      213.5511      -25.8512     239.4023       -28.1116     241.6628

 Contributions to Isotropic shielding for atom   10 (   224.2453 ppm):
                         Standard Origin              Atomic Origin
 NLMO      Total    Paramagnetic  Diamagnetic   Paramagnetic  Diamagnetic
   23       4.5607       -9.7644      14.3252        -3.3733       7.9340
   24      -0.4791        0.0608      -0.5399        -1.1627       0.6836
   26       6.4116       -3.5266       9.9382        -4.7727      11.1844
   27       6.8056       -4.9562      11.7618        -4.3127      11.1183
   28       5.8390        3.4279       2.4110        -5.2749      11.1139
   41     200.0736       -0.0031     200.0767         0.0019     200.0717
 Sum      223.2114      -14.7616     237.9730       -18.8945     242.1059

 Contributions to Isotropic shielding for atom   11 (   221.2655 ppm):
                         Standard Origin              Atomic Origin
 NLMO      Total    Paramagnetic  Diamagnetic   Paramagnetic  Diamagnetic
   17      -0.1702       -0.0423      -0.1279        -1.0966       0.9264
   23      -0.5108        0.0776      -0.5884        -1.2154       0.7046
   24       4.3051      -11.2073      15.5124        -3.6360       7.9412
   25       0.3033        0.0547       0.2486        -0.7265       1.0298
   29       6.2447       -3.7207       9.9654        -4.9286      11.1733
   30       5.6756       -5.0197      10.6952        -5.4276      11.1032
   31       4.9135        2.5779       2.3355        -6.2015      11.1150
   42     200.0749       -0.0035     200.0784         0.0022     200.0727
 Sum      220.8359      -17.2834     238.1193       -23.2303     244.0662

 Contributions to Isotropic shielding for atom   12 (    32.3452 ppm):
                         Standard Origin              Atomic Origin
 NLMO      Total    Paramagnetic  Diamagnetic   Paramagnetic  Diamagnetic
    1       1.2902        0.2252       1.0649         0.2993       0.9908
    2      26.3401        0.1744      26.1656         0.4716      25.8684
    3       1.8880        2.3477      -0.4597         0.0617       1.8263
    4       2.0836        0.5161       1.5675         0.2260       1.8576
    6      -0.1180        0.2387      -0.3567        -1.0279       0.9099
   10       0.0593       -0.1421       0.2013        -0.9658       1.0251
 Sum       31.5431        3.3601      28.1830        -0.9351      32.4782

 Contributions to Isotropic shielding for atom   13 (    32.4663 ppm):
                         Standard Origin              Atomic Origin
 NLMO      Total    Paramagnetic  Diamagnetic   Paramagnetic  Diamagnetic
    1       1.2331        0.4334       0.7997         0.2526       0.9805
    2       1.8859        2.2625      -0.3767         0.0348       1.8511
    3      26.4676        0.0819      26.3858         0.4373      26.0303
    4       2.0598        0.7147       1.3451         0.1925       1.8673
 Sum       31.6463        3.4925      28.1539         0.9172      30.7292

 Contributions to Isotropic shielding for atom   14 (    32.2649 ppm):
                         Standard Origin              Atomic Origin
 NLMO      Total    Paramagnetic  Diamagnetic   Paramagnetic  Diamagnetic
    1       1.6551       -1.2303       2.8853         0.7878       0.8672
    2       1.9502        0.8609       1.0893         0.1190       1.8312
    3       1.9569        1.1359       0.8210         0.1223       1.8346
    4      26.1911        0.4115      25.7796         0.3863      25.8047
   10       0.0904       -0.3716       0.4620        -1.0878       1.1783
   43      -0.4106        0.1985      -0.6090         0.6364      -1.0469
 Sum       31.4331        1.0049      30.4282         0.9640      30.4691

 Contributions to Isotropic shielding for atom   15 (    32.3044 ppm):
                         Standard Origin              Atomic Origin
 NLMO      Total    Paramagnetic  Diamagnetic   Paramagnetic  Diamagnetic
    1       0.8415        2.3164      -1.4749        -0.2253       1.0668
    3       0.2144       -0.3028       0.5171        -0.7868       1.0012
    5       1.2034        1.3409      -0.1375         0.2002       1.0032
    6       1.2428        1.2197       0.0231         0.2349       1.0079
    7      26.5745       -0.4009      26.9755         0.5015      26.0730
   19      -0.1307       -0.1908       0.0601        -1.3066       1.1758
   21       0.1547        0.1069       0.0478        -0.8939       1.0486
 Sum       30.1006        4.0894      26.0112        -2.2761      32.3766

 Contributions to Isotropic shielding for atom   16 (    31.9902 ppm):
                         Standard Origin              Atomic Origin
 NLMO      Total    Paramagnetic  Diamagnetic   Paramagnetic  Diamagnetic
    8       1.1012        0.0891       1.0121         0.2081       0.8931
    9       0.7006        0.5963       0.1043        -0.5498       1.2504
   10       0.6185        1.1685      -0.5500        -1.0299       1.6484
   11      26.7832        0.2859      26.4973         0.7575      26.0257
   16      -0.1441       -0.1266      -0.0175        -1.1875       1.0435
   21       0.0404       -0.6553       0.6957        -1.0895       1.1299
   23      -0.0004       -0.5284       0.5279        -1.0235       1.0231
   27      -0.3895       -1.4157       1.0262        -0.8611       0.4716
 Sum       28.7099       -0.5860      29.2960        -4.7757      33.4856

 Contributions to Isotropic shielding for atom   17 (    32.6123 ppm):
                         Standard Origin              Atomic Origin
 NLMO      Total    Paramagnetic  Diamagnetic   Paramagnetic  Diamagnetic
   12       1.2986        0.3869       0.9117         0.4243       0.8742
   13       1.0910        1.2930      -0.2019         0.0516       1.0394
   14      26.3870        0.0527      26.3343         0.4234      25.9635
   15       2.1079        1.3552       0.7527         0.3578       1.7501
   18       0.0849       -0.5558       0.6406        -1.0279       1.1128
   29      -0.3335       -1.5607       1.2272        -0.8819       0.5485
 Sum       30.6359        0.9713      29.6645        -0.6526      31.2885

 Contributions to Isotropic shielding for atom   18 (    32.9345 ppm):
                         Standard Origin              Atomic Origin
 NLMO      Total    Paramagnetic  Diamagnetic   Paramagnetic  Diamagnetic
   12       1.3340        0.1154       1.2186         0.4669       0.8671
   13       1.1475        1.0190       0.1285         0.1975       0.9500
   14       2.0824        1.4681       0.6143         0.3125       1.7699
   15      26.4358        0.0990      26.3368         0.3950      26.0408
   19       0.0488       -0.6818       0.7307        -1.0179       1.0668
   26      -0.2445       -1.3235       1.0790        -1.0027       0.7583
 Sum       30.8041        0.6962      30.1079        -0.6487      31.4528

 Contributions to Isotropic shielding for atom   19 (    32.6404 ppm):
                         Standard Origin              Atomic Origin
 NLMO      Total    Paramagnetic  Diamagnetic   Paramagnetic  Diamagnetic
    8       1.3758        0.6904       0.6855         0.4928       0.8830
   10      -0.0187       -0.7110       0.6923        -1.5022       1.4835
   12       1.1986        0.6027       0.5959         0.2040       0.9946
   16       1.1069        1.1474      -0.0406         0.0221       1.0848
   17      26.3132        0.1079      26.2052         0.4206      25.8926
   24      -0.0249       -0.7925       0.7676        -1.0541       1.0292
   30      -0.1483       -1.5345       1.3862        -1.0521       0.9038
 Sum       29.8026       -0.4895      30.2921        -2.4689      32.2714

 Contributions to Isotropic shielding for atom   20 (    32.5535 ppm):
                         Standard Origin              Atomic Origin
 NLMO      Total    Paramagnetic  Diamagnetic   Paramagnetic  Diamagnetic
    1      -0.1800       -0.4477       0.2678        -1.3744       1.1945
    5       1.1983        0.8107       0.3876         0.2736       0.9247
   13       1.3504        0.2147       1.1357         0.3596       0.9907
   14       0.0048       -0.0722       0.0770        -1.0554       1.0602
   18      26.4262        0.0650      26.3612         0.4724      25.9538
   19       2.0038        2.0275      -0.0237         0.2237       1.7802
 Sum       30.8036        2.5980      28.2056        -1.1006      31.9042

 Contributions to Isotropic shielding for atom   21 (    32.1441 ppm):
                         Standard Origin              Atomic Origin
 NLMO      Total    Paramagnetic  Diamagnetic   Paramagnetic  Diamagnetic
    5       1.0251        1.2407      -0.2156        -0.0268       1.0519
    7      -0.1107       -0.5079       0.3972        -1.2195       1.1088
   13       1.1840        0.7098       0.4742         0.0885       1.0954
   15       0.0307        0.0961      -0.0654        -1.0767       1.1074
   18       1.9956        1.7920       0.2036         0.1918       1.8039
   19      26.4883       -0.1467      26.6350         0.4560      26.0323
 Sum       30.6130        3.1840      27.4289        -1.5868      32.1997

 Contributions to Isotropic shielding for atom   22 (    31.9886 ppm):
                         Standard Origin              Atomic Origin
 NLMO      Total    Paramagnetic  Diamagnetic   Paramagnetic  Diamagnetic
    1      -0.0487       -0.1171       0.0684        -1.0087       0.9600
    2      -0.1174       -1.1255       1.0080        -0.9985       0.8811
    6       1.0146        1.3347      -0.3201         0.0647       0.9499
    9       1.2486        0.6661       0.5826         0.3330       0.9156
   10      -0.0175        0.0899      -0.1074        -1.7880       1.7705
   20      26.0650        0.0756      25.9894         0.4772      25.5878
   21       2.0675        1.6480       0.4194         0.3527       1.7147
 Sum       30.2121        2.5717      27.6403        -2.5676      32.7796

 Contributions to Isotropic shielding for atom   23 (    32.4091 ppm):
                         Standard Origin              Atomic Origin
 NLMO      Total    Paramagnetic  Diamagnetic   Paramagnetic  Diamagnetic
    6       1.1531        0.7805       0.3726         0.1144       1.0387
    9       1.4787        0.1913       1.2873         0.5831       0.8956
   11       0.0119       -0.0930       0.1049        -1.0726       1.0845
   20       1.9315        1.7482       0.1833         0.0914       1.8401
   21      26.4346        0.0876      26.3469         0.4161      26.0185
 Sum       31.0098        2.7146      28.2952         0.1324      30.8774

 Contributions to Isotropic shielding for atom   24 (    34.6078 ppm):
                         Standard Origin              Atomic Origin
 NLMO      Total    Paramagnetic  Diamagnetic   Paramagnetic  Diamagnetic
    8      -0.0569        0.0354      -0.0923        -1.0386       0.9817
   10       1.7725        1.4772       0.2953         1.0666       0.7058
   11       0.2251        0.2383      -0.0132        -0.7799       1.0050
   22      23.0613       -0.4069      23.4682        -0.2160      23.2773
   25      -0.3223       -1.0761       0.7537        -0.7020       0.3797
   43       3.7986        1.2554       2.5432         1.8631       1.9354
   44       5.1575        2.0904       3.0671         1.9893       3.1682
 Sum       33.6357        3.6137      30.0220         2.1825      31.4532

 Contributions to Isotropic shielding for atom   25 (    33.0136 ppm):
                         Standard Origin              Atomic Origin
 NLMO      Total    Paramagnetic  Diamagnetic   Paramagnetic  Diamagnetic
    8      -0.1347        0.1913      -0.3260        -1.0844       0.9497
   10      -0.0848        0.0377      -0.1225        -1.1768       1.0920
   16       1.6948       -0.2424       1.9372         0.6899       1.0049
   22      -0.2283       -1.0188       0.7905        -0.4163       0.1880
   23       0.9743        1.5751      -0.6008        -0.0514       1.0257
   24       0.9108        1.8005      -0.8897        -0.1023       1.0132
   25      26.6877       -0.0308      26.7185         0.3972      26.2905
 Sum       29.8199        2.3126      27.5073        -1.7441      31.5640

 Contributions to Isotropic shielding for atom   26 (    32.7969 ppm):
                         Standard Origin              Atomic Origin
 NLMO      Total    Paramagnetic  Diamagnetic   Paramagnetic  Diamagnetic
   12      -0.0824        0.1385      -0.2209        -1.0614       0.9790
   23       1.4813       -0.5651       2.0464         0.5565       0.9248
   24      -0.1433        0.2753      -0.4186        -1.0460       0.9026
   26      26.2471        0.2224      26.0247         0.3979      25.8492
   27       2.0984        0.5633       1.5351         0.2712       1.8272
   28       1.9567        2.2089      -0.2522         0.1062       1.8505
 Sum       31.5578        2.8433      28.7144        -0.7756      32.3334

 Contributions to Isotropic shielding for atom   27 (    32.7205 ppm):
                         Standard Origin              Atomic Origin
 NLMO      Total    Paramagnetic  Diamagnetic   Paramagnetic  Diamagnetic
   23       1.5366       -0.9028       2.4395         0.5359       1.0007
   26       2.0761        0.6317       1.4445         0.2323       1.8439
   27      26.3156        0.2894      26.0262         0.3708      25.9447
   28       1.9377        1.9158       0.0218         0.0794       1.8582
 Sum       31.8660        1.9340      29.9320         1.2184      30.6476

 Contributions to Isotropic shielding for atom   28 (    32.6383 ppm):
                         Standard Origin              Atomic Origin
 NLMO      Total    Paramagnetic  Diamagnetic   Paramagnetic  Diamagnetic
   23       1.2062        0.6906       0.5155         0.1788       1.0274
   24      -0.1523        0.6725      -0.8248        -1.0979       0.9456
   26       1.9829        1.8805       0.1024         0.1133       1.8696
   27       2.0330        1.5597       0.4733         0.1688       1.8641
   28      26.2924       -0.0260      26.3184         0.4037      25.8888
 Sum       31.3621        4.7773      26.5848        -0.2333      31.5955

 Contributions to Isotropic shielding for atom   29 (    32.5398 ppm):
                         Standard Origin              Atomic Origin
 NLMO      Total    Paramagnetic  Diamagnetic   Paramagnetic  Diamagnetic
   12      -0.0758        0.2121      -0.2879        -1.0574       0.9816
   23      -0.1455        0.3299      -0.4754        -1.0346       0.8891
   24       1.4880       -0.8548       2.3428         0.5796       0.9084
   29      26.2909        0.2523      26.0386         0.4083      25.8826
   30       2.0217        0.6821       1.3396         0.2049       1.8168
   31       1.8852        2.1534      -0.2681         0.0419       1.8434
 Sum       31.4645        2.7750      28.6895        -0.8574      32.3219

 Contributions to Isotropic shielding for atom   30 (    32.6134 ppm):
                         Standard Origin              Atomic Origin
 NLMO      Total    Paramagnetic  Diamagnetic   Paramagnetic  Diamagnetic
   24       1.6073       -0.9084       2.5157         0.6108       0.9965
   29       2.0433        0.7504       1.2929         0.1999       1.8434
   30      26.3395        0.3084      26.0310         0.4139      25.9255
   31       1.9081        2.0603      -0.1522         0.0609       1.8472
 Sum       31.8982        2.2107      29.6875         1.2855      30.6126

 Contributions to Isotropic shielding for atom   31 (    32.4873 ppm):
                         Standard Origin              Atomic Origin
 NLMO      Total    Paramagnetic  Diamagnetic   Paramagnetic  Diamagnetic
   23      -0.1713        0.7210      -0.8923        -1.1314       0.9600
   24       1.2053        0.4202       0.7851         0.1930       1.0123
   29       1.9564        1.8472       0.1092         0.0940       1.8625
   30       1.9508        1.6904       0.2604         0.1039       1.8469
   31      26.3474        0.0184      26.3290         0.4478      25.8996
 Sum       31.2885        4.6972      26.5914        -0.2927      31.5812
 
 1\1\GINC-COMPUTE-10-6\SP\RHF\STO-3G\C10H20O1\YTSAI.IQUIR\03-Aug-2021\0
 \\# rhf/STO-3G nmr pop=nbo\\comment\\0,1\C,0,1.015943417,-1.231875573,
 -2.661150115\C,0,-0.362948269,-1.275592427,-1.996017906\C,0,0.38654957
 6,-1.221033036,0.466319538\C,0,-1.032923261,0.668699836,-0.4384717\C,0
 ,0.236815864,0.315600553,0.347077581\C,0,-0.972463186,0.132652844,-1.8
 72547235\C,0,-0.326446476,-2.002274009,-0.644985121\O,0,1.774599835,-1
 .561789228,0.439410262\C,0,0.328992224,1.010350996,1.738213019\C,0,-0.
 913840121,0.818562848,2.613446825\C,0,0.622014136,2.509002911,1.596322
 821\H,0,1.441884248,-2.237762705,-2.738627733\H,0,0.937698315,-0.82723
 0345,-3.676212193\H,0,1.722388386,-0.605237445,-2.10956017\H,0,-1.0069
 51988,-1.85936718,-2.667584674\H,0,0.003387092,-1.588647317,1.42365873
 8\H,0,-1.186584552,1.752186593,-0.479684378\H,0,-1.914335587,0.2471639
 15,0.060698817\H,0,1.095319879,0.68613097,-0.231601012\H,0,-0.41994900
 2,0.842835315,-2.500486193\H,0,-1.994801406,0.118229884,-2.271542115\H
 ,0,0.129843569,-2.992300892,-0.767898949\H,0,-1.365318969,-2.173696756
 ,-0.332424011\H,0,2.206305988,-1.105330517,1.180955285\H,0,1.180729847
 ,0.574385276,2.276519804\H,0,-1.789049282,1.322095746,2.190197237\H,0,
 -1.159528626,-0.238704795,2.744991305\H,0,-0.745126228,1.240605513,3.6
 10516744\H,0,-0.208332263,3.045544954,1.127182792\H,0,1.521089853,2.67
 599149,0.993994615\H,0,0.795036987,2.96080258,2.579288125\\Version=EM6
 4L-G09RevC.01\State=1-A\HF=-459.6108872\RMSD=8.504e-09\Dipole=-0.27865
 74,0.3609108,0.331191\Quadrupole=-0.2479015,-1.1303502,1.3782517,1.972
 0326,1.5041562,-0.2622247\PG=C01 [X(C10H20O1)]\\@


 LIVE PURE, SPEAK TRUE, RIGHT WRONG, FOLLOW THE KING...
 ELSE, WHEREFORE BORN......
           IDYLLS OF THE KING, TENNYSON
 Job cpu time:  0 days  0 hours  0 minutes 32.7 seconds.
 File lengths (MBytes):  RWF=      5 Int=      0 D2E=      0 Chk=      1 Scr=      1
 Normal termination of Gaussian 09 at Tue Aug  3 16:33:43 2021.
