 Entering Gaussian System, Link 0=g09
 Input=/home/ytsai.iquir/menthol/01_menthol_M0037_MMFF_NMR_rhf_STO-3G_nbo.gjc
 Output=/home/ytsai.iquir/menthol/01_menthol_M0037_MMFF_NMR_rhf_STO-3G_nbo.log
 Initial command:
 /share/apps/Gaussian09/EM64T.SSE4.2-enabled/g09/l1.exe /tmp/Gau-11976.inp -scrdir=/tmp/
 Entering Link 1 = /share/apps/Gaussian09/EM64T.SSE4.2-enabled/g09/l1.exe PID=     11977.
  
 Copyright (c) 1988,1990,1992,1993,1995,1998,2003,2009,2011,
            Gaussian, Inc.  All Rights Reserved.
  
 This is part of the Gaussian(R) 09 program.  It is based on
 the Gaussian(R) 03 system (copyright 2003, Gaussian, Inc.),
 the Gaussian(R) 98 system (copyright 1998, Gaussian, Inc.),
 the Gaussian(R) 94 system (copyright 1995, Gaussian, Inc.),
 the Gaussian 92(TM) system (copyright 1992, Gaussian, Inc.),
 the Gaussian 90(TM) system (copyright 1990, Gaussian, Inc.),
 the Gaussian 88(TM) system (copyright 1988, Gaussian, Inc.),
 the Gaussian 86(TM) system (copyright 1986, Carnegie Mellon
 University), and the Gaussian 82(TM) system (copyright 1983,
 Carnegie Mellon University). Gaussian is a federally registered
 trademark of Gaussian, Inc.
  
 This software contains proprietary and confidential information,
 including trade secrets, belonging to Gaussian, Inc.
  
 This software is provided under written license and may be
 used, copied, transmitted, or stored only in accord with that
 written license.
  
 The following legend is applicable only to US Government
 contracts under FAR:
  
                    RESTRICTED RIGHTS LEGEND
  
 Use, reproduction and disclosure by the US Government is
 subject to restrictions as set forth in subparagraphs (a)
 and (c) of the Commercial Computer Software - Restricted
 Rights clause in FAR 52.227-19.
  
 Gaussian, Inc.
 340 Quinnipiac St., Bldg. 40, Wallingford CT 06492
  
  
 ---------------------------------------------------------------
 Warning -- This program may not be used in any manner that
 competes with the business of Gaussian, Inc. or will provide
 assistance to any competitor of Gaussian, Inc.  The licensee
 of this program is prohibited from giving any competitor of
 Gaussian, Inc. access to this program.  By using this program,
 the user acknowledges that Gaussian, Inc. is engaged in the
 business of creating and licensing software in the field of
 computational chemistry and represents and warrants to the
 licensee that it is not a competitor of Gaussian, Inc. and that
 it will not use this program in any manner prohibited above.
 ---------------------------------------------------------------
  

 Cite this work as:
 Gaussian 09, Revision C.01,
 M. J. Frisch, G. W. Trucks, H. B. Schlegel, G. E. Scuseria, 
 M. A. Robb, J. R. Cheeseman, G. Scalmani, V. Barone, B. Mennucci, 
 G. A. Petersson, H. Nakatsuji, M. Caricato, X. Li, H. P. Hratchian, 
 A. F. Izmaylov, J. Bloino, G. Zheng, J. L. Sonnenberg, M. Hada, 
 M. Ehara, K. Toyota, R. Fukuda, J. Hasegawa, M. Ishida, T. Nakajima, 
 Y. Honda, O. Kitao, H. Nakai, T. Vreven, J. A. Montgomery, Jr., 
 J. E. Peralta, F. Ogliaro, M. Bearpark, J. J. Heyd, E. Brothers, 
 K. N. Kudin, V. N. Staroverov, T. Keith, R. Kobayashi, J. Normand, 
 K. Raghavachari, A. Rendell, J. C. Burant, S. S. Iyengar, J. Tomasi, 
 M. Cossi, N. Rega, J. M. Millam, M. Klene, J. E. Knox, J. B. Cross, 
 V. Bakken, C. Adamo, J. Jaramillo, R. Gomperts, R. E. Stratmann, 
 O. Yazyev, A. J. Austin, R. Cammi, C. Pomelli, J. W. Ochterski, 
 R. L. Martin, K. Morokuma, V. G. Zakrzewski, G. A. Voth, 
 P. Salvador, J. J. Dannenberg, S. Dapprich, A. D. Daniels, 
 O. Farkas, J. B. Foresman, J. V. Ortiz, J. Cioslowski, 
 and D. J. Fox, Gaussian, Inc., Wallingford CT, 2010.
 
 ******************************************
 Gaussian 09:  EM64L-G09RevC.01 23-Sep-2011
                24-May-2020 
 ******************************************
 %nprocshared=4
 Will use up to    4 processors via shared memory.
 ------------------------
 # rhf/STO-3G nmr pop=nbo
 ------------------------
 1/38=1/1;
 2/12=2,17=6,18=5,40=1/2;
 3/6=3,11=1,16=1,25=1,30=1,116=1/1,2,8,3;
 4//1;
 5/5=2,38=5/2;
 8/6=1,10=90,11=11/1;
 10/13=100,45=16/2;
 6/7=2,8=2,9=2,10=2,28=1,64=1/1,7;
 99/9=1/99;
 -------
 comment
 -------
 Charge =  0 Multiplicity = 1
 Symbolic Z-Matrix:
 6                     2.95472   0.62034  -1.77845 
 6                     1.62086  -0.1025   -1.58433 
 6                     0.365    -1.37697   0.21189 
 6                     0.1646    1.17509   0.07321 
 6                    -0.19641  -0.09598   0.87722 
 6                     0.46252   0.8913   -1.39723 
 6                     1.72466  -1.10684  -0.42774 
 8                     0.53921  -2.39867   1.19198 
 6                    -1.7139   -0.22698   1.21288 
 6                    -2.6306   -0.19165  -0.01309 
 6                    -2.16148   0.84127   2.21939 
 1                     2.9171    1.27651  -2.65444 
 1                     3.20713   1.23395  -0.90717 
 1                     3.76604  -0.0985   -1.93496 
 1                     1.42155  -0.66201  -2.50815 
 1                    -0.31316  -1.76975  -0.55277 
 1                     1.05854   1.627     0.52347 
 1                    -0.61685   1.93749   0.14531 
 1                     0.30778  -0.00038   1.85096 
 1                     0.66939   1.83086  -1.92315 
 1                    -0.43827   0.4762   -1.86623 
 1                     2.41688  -0.74581   0.34546 
 1                     2.16636  -2.0444   -0.78918 
 1                    -0.34113  -2.66705   1.50294 
 1                    -1.86996  -1.19473   1.70574 
 1                    -2.58878   0.77414  -0.52605 
 1                    -2.37324  -0.97307  -0.73315 
 1                    -3.67179  -0.35775   0.28553 
 1                    -2.11641   1.84999   1.79836 
 1                    -1.5351    0.81777   3.11728 
 1                    -3.19525   0.66113   2.53448 
 
                          Input orientation:                          
 ---------------------------------------------------------------------
 Center     Atomic      Atomic             Coordinates (Angstroms)
 Number     Number       Type             X           Y           Z
 ---------------------------------------------------------------------
      1          6           0        2.954717    0.620336   -1.778454
      2          6           0        1.620861   -0.102496   -1.584330
      3          6           0        0.365005   -1.376970    0.211887
      4          6           0        0.164598    1.175091    0.073207
      5          6           0       -0.196406   -0.095981    0.877216
      6          6           0        0.462517    0.891295   -1.397233
      7          6           0        1.724656   -1.106838   -0.427735
      8          8           0        0.539212   -2.398665    1.191978
      9          6           0       -1.713898   -0.226976    1.212875
     10          6           0       -2.630601   -0.191646   -0.013085
     11          6           0       -2.161476    0.841266    2.219395
     12          1           0        2.917098    1.276508   -2.654444
     13          1           0        3.207131    1.233946   -0.907169
     14          1           0        3.766041   -0.098495   -1.934961
     15          1           0        1.421546   -0.662010   -2.508147
     16          1           0       -0.313160   -1.769752   -0.552773
     17          1           0        1.058535    1.626999    0.523472
     18          1           0       -0.616851    1.937493    0.145307
     19          1           0        0.307781   -0.000376    1.850962
     20          1           0        0.669387    1.830861   -1.923146
     21          1           0       -0.438269    0.476203   -1.866234
     22          1           0        2.416881   -0.745812    0.345463
     23          1           0        2.166364   -2.044404   -0.789179
     24          1           0       -0.341131   -2.667053    1.502936
     25          1           0       -1.869962   -1.194734    1.705741
     26          1           0       -2.588782    0.774136   -0.526055
     27          1           0       -2.373244   -0.973067   -0.733151
     28          1           0       -3.671790   -0.357748    0.285532
     29          1           0       -2.116408    1.849987    1.798361
     30          1           0       -1.535104    0.817767    3.117280
     31          1           0       -3.195247    0.661135    2.534482
 ---------------------------------------------------------------------
                    Distance matrix (angstroms):
                    1          2          3          4          5
     1  C    0.000000
     2  C    1.529491   0.000000
     3  C    3.828485   2.535322   0.000000
     4  C    3.394284   2.549580   2.563672   0.000000
     5  C    4.182735   3.059691   1.548799   1.546732   0.000000
     6  C    2.535707   1.537656   2.782769   1.526922   2.565543
     7  C    2.514085   1.535314   1.526676   2.809257   2.532826
     8  O    4.875705   3.761681   1.426459   3.763472   2.437737
     9  C    5.609096   4.354362   2.578042   2.606412   1.559682
    10  C    5.913682   4.533397   3.229437   3.112645   2.593664
    11  C    6.496694   5.446566   3.915835   3.182481   2.557611
    12  H    1.095142   2.174172   4.665831   3.876418   4.904106
    13  H    1.095156   2.181943   4.018314   3.197124   4.066546
    14  H    1.095198   2.173650   4.220249   4.315686   4.858944
    15  H    2.127787   1.098281   3.004336   3.408555   3.794581
    16  H    4.230111   2.753959   1.094938   3.048312   2.204543
    17  H    3.147656   2.783917   3.098694   1.098218   2.160712
    18  H    4.265192   3.487199   3.457476   1.094129   2.201700
    19  H    4.534778   3.679108   2.141227   2.136033   1.100694
    20  H    2.590182   2.181277   3.865385   2.161081   3.507755
    21  H    3.397181   2.157401   2.897945   2.147865   2.812900
    22  H    2.581986   2.184401   2.150906   2.972671   2.744870
    23  H    2.949747   2.168143   2.166217   3.887920   3.486532
    24  H    5.695355   4.467390   1.956974   4.130612   2.650072
    25  H    6.221867   4.919695   2.694418   3.524298   2.166680
    26  H    5.685292   4.428264   3.727824   2.846222   2.906842
    27  H    5.658513   4.175557   2.924764   3.421322   2.846258
    28  H    7.009086   5.619047   4.164126   4.136732   3.535096
    29  H    6.326291   5.405735   4.368931   2.938474   2.884737
    30  H    6.645726   5.736910   4.107139   3.504718   2.764947
    31  H    7.511667   6.382996   4.714203   4.196496   3.508960
                    6          7          8          9         10
     6  C    0.000000
     7  C    2.554497   0.000000
     8  O    4.187330   2.386957   0.000000
     9  C    3.577706   3.910168   3.129405   0.000000
    10  C    3.557528   4.469651   4.046088   1.531200   0.000000
    11  C    4.468539   5.089640   4.341251   1.534454   2.504187
    12  H    2.784589   3.472821   5.827195   6.217937   6.317375
    13  H    2.808999   2.811913   4.971928   5.553864   6.075427
    14  H    3.490287   2.730519   5.047866   6.321005   6.679769
    15  H    2.136966   2.148921   4.181556   4.885312   4.781891
    16  H    2.897578   2.146575   2.041133   2.731252   2.855208
    17  H    2.141403   2.970249   4.113705   3.405714   4.147903
    18  H    2.153833   3.883167   4.608066   2.651064   2.934879
    19  H    3.371912   2.902457   2.497921   2.132062   3.485017
    20  H    1.096433   3.461203   5.254506   4.444026   4.316109
    21  H    1.097123   3.041964   4.309639   3.406259   2.947287
    22  H    3.088147   1.098795   2.640861   4.252638   5.090455
    23  H    3.448355   1.097624   2.588070   4.729450   5.200568
    24  H    4.660329   3.229433   0.971459   2.814711   3.696976
    25  H    4.406861   4.180996   2.741810   1.097192   2.130521
    26  H    3.175390   4.706748   4.775212   2.188955   1.094359
    27  H    3.458091   4.111443   3.771055   2.185957   1.093319
    28  H    4.635116   5.494681   4.766500   2.170347   1.095826
    29  H    4.216843   5.334050   5.046886   2.195127   2.777409
    30  H    4.937279   5.186258   4.284275   2.179498   3.466729
    31  H    5.374997   6.008819   5.011075   2.174805   2.745206
                   11         12         13         14         15
    11  C    0.000000
    12  H    7.052351   0.000000
    13  H    6.225073   1.771694   0.000000
    14  H    7.299129   1.768896   1.773172   0.000000
    15  H    6.119440   2.452739   3.057138   2.478456   0.000000
    16  H    4.233037   4.912361   4.641147   4.619894   2.838976
    17  H    3.723171   3.698142   2.611070   4.043738   3.816027
    18  H    2.808811   4.556786   4.028091   5.261417   4.237134
    19  H    2.634641   5.360751   4.187728   5.128587   4.547534
    20  H    5.114072   2.427820   2.797974   3.648537   2.668779
    21  H    4.449165   3.538397   3.844857   4.243963   2.272993
    22  H    5.195362   3.652320   2.472453   2.727561   3.023377
    23  H    6.009060   3.882174   3.441613   2.767371   2.328222
    24  H    4.016873   6.591778   5.797979   5.940159   4.818300
    25  H    2.119933   6.930671   6.205051   6.798602   5.373516
    26  H    2.779314   5.924283   5.826600   6.567364   4.698291
    27  H    3.471912   6.061327   6.003480   6.316648   4.200929
    28  H    2.731026   7.397817   7.160696   7.766539   5.817155
    29  H    1.093992   6.744815   6.003287   7.234465   6.113367
    30  H    1.095030   7.303789   6.233633   7.380163   6.525101
    31  H    1.095632   8.041417   7.291331   8.307375   6.963734
                   16         17         18         19         20
    16  H    0.000000
    17  H    3.818085   0.000000
    18  H    3.784602   1.745375   0.000000
    19  H    3.048639   2.230294   2.742178   0.000000
    20  H    3.975895   2.485747   2.438089   4.210473   0.000000
    21  H    2.604831   3.045563   2.492701   3.821160   1.750783
    22  H    3.050968   2.739895   4.055086   2.696387   3.852216
    23  H    2.505865   4.053337   4.947227   3.821351   4.306333
    24  H    2.243183   4.621396   4.808432   2.766473   5.743728
    25  H    2.802707   4.235096   3.717000   2.488000   5.363893
    26  H    3.413288   3.889962   2.385925   3.826245   3.699215
    27  H    2.216120   4.485149   3.511121   3.848592   4.305312
    28  H    3.738570   5.135349   3.823669   4.291301   5.339858
    29  H    4.677824   3.428604   2.233588   3.050131   4.648724
    30  H    4.653782   3.756282   3.305994   2.380996   5.593928
    31  H    4.873066   4.803302   3.739702   3.629876   6.014491
                   21         22         23         24         25
    21  H    0.000000
    22  H    3.812717   0.000000
    23  H    3.781219   1.742559   0.000000
    24  H    4.608773   3.554932   3.453841   0.000000
    25  H    4.195328   4.519835   4.820632   2.132176   0.000000
    26  H    2.551381   5.303437   5.533969   4.583723   3.061709
    27  H    2.669904   4.915318   4.664649   3.463979   2.500124
    28  H    3.972559   6.101319   6.171211   4.231813   2.442155
    29  H    4.258249   5.422157   6.340645   4.862358   3.056083
    30  H    5.114207   5.074045   6.095351   4.021895   2.480873
    31  H    5.196289   6.186055   6.863930   4.504097   2.426405
                   26         27         28         29         30
    26  H    0.000000
    27  H    1.772587   0.000000
    28  H    1.764296   1.761406   0.000000
    29  H    2.604515   3.800546   3.095474   0.000000
    30  H    3.792891   4.328438   3.737118   1.772833   0.000000
    31  H    3.122091   3.744826   2.514555   1.766108   1.766426
                   31
    31  H    0.000000
 Stoichiometry    C10H20O
 Framework group  C1[X(C10H20O)]
 Deg. of freedom    87
 Full point group                 C1      NOp   1
 Largest Abelian subgroup         C1      NOp   1
 Largest concise Abelian subgroup C1      NOp   1
                         Standard orientation:                         
 ---------------------------------------------------------------------
 Center     Atomic      Atomic             Coordinates (Angstroms)
 Number     Number       Type             X           Y           Z
 ---------------------------------------------------------------------
      1          6           0        3.419302   -0.675543   -0.370264
      2          6           0        2.193552   -0.277702    0.453509
      3          6           0        0.152126    1.214570    0.270313
      4          6           0        0.073605   -1.182040   -0.636609
      5          6           0       -0.675528    0.165491   -0.512758
      6          6           0        1.127259   -1.385579    0.449613
      7          6           0        1.641301    1.069650   -0.033163
      8          8           0       -0.244581    2.530837   -0.110281
      9          6           0       -2.129409    0.037069    0.037101
     10          6           0       -2.224032   -0.659760    1.397266
     11          6           0       -3.049946   -0.669600   -0.966781
     12          1           0        3.871321   -1.591979    0.023636
     13          1           0        3.156030   -0.852118   -1.418537
     14          1           0        4.179990    0.111730   -0.338426
     15          1           0        2.530305   -0.155952    1.491775
     16          1           0        0.001990    1.127680    1.351423
     17          1           0        0.576833   -1.209702   -1.612354
     18          1           0       -0.615610   -2.031804   -0.638413
     19          1           0       -0.787029    0.553359   -1.536795
     20          1           0        1.593351   -2.371481    0.335952
     21          1           0        0.628759   -1.399496    1.426846
     22          1           0        1.798354    1.191625   -1.113814
     23          1           0        2.204041    1.890290    0.430141
     24          1           0       -1.152715    2.671565    0.204712
     25          1           0       -2.535040    1.048725    0.162975
     26          1           0       -1.902948   -1.704578    1.343587
     27          1           0       -1.618127   -0.153946    2.153823
     28          1           0       -3.259408   -0.654559    1.756159
     29          1           0       -2.776313   -1.719079   -1.110088
     30          1           0       -3.018284   -0.172293   -1.941858
     31          1           0       -4.088217   -0.644019   -0.617857
 ---------------------------------------------------------------------
 Rotational constants (GHZ):      1.6314508      0.7446564      0.6109561
 Standard basis: STO-3G (5D, 7F)
 There are    75 symmetry adapted basis functions of A   symmetry.
 Integral buffers will be    131072 words long.
 Raffenetti 1 integral format.
 Two-electron integral symmetry is turned on.
    75 basis functions,   225 primitive gaussians,    75 cartesian basis functions
    44 alpha electrons       44 beta electrons
       nuclear repulsion energy       693.6361996566 Hartrees.
 NAtoms=   31 NActive=   31 NUniq=   31 SFac= 1.00D+00 NAtFMM=   60 NAOKFM=F Big=F
 One-electron integrals computed using PRISM.
 NBasis=    75 RedAO= T  NBF=    75
 NBsUse=    75 1.00D-06 NBFU=    75
 Harris functional with IExCor=  205 diagonalized for initial guess.
 ExpMin= 1.69D-01 ExpMax= 1.31D+02 ExpMxC= 1.31D+02 IAcc=1 IRadAn=         1 AccDes= 0.00D+00
 HarFok:  IExCor=  205 AccDes= 0.00D+00 IRadAn=         1 IDoV= 1
 ScaDFX=  1.000000  1.000000  1.000000  1.000000
 FoFCou: FMM=F IPFlag=           0 FMFlag=      100000 FMFlg1=           0
         NFxFlg=           0 DoJE=T BraDBF=F KetDBF=T FulRan=T
         Omega=  0.000000  0.000000  1.000000  0.000000  0.000000 ICntrl=     500 IOpCl=  0
         NMat0=    1 NMatS0=    1 NMatT0=    0 NMatD0=    1 NMtDS0=    0 NMtDT0=    0
         I1Cent=           4 NGrid=           0.
 Petite list used in FoFCou.
 Initial guess orbital symmetries:
       Occupied  (A) (A) (A) (A) (A) (A) (A) (A) (A) (A) (A) (A)
                 (A) (A) (A) (A) (A) (A) (A) (A) (A) (A) (A) (A)
                 (A) (A) (A) (A) (A) (A) (A) (A) (A) (A) (A) (A)
                 (A) (A) (A) (A) (A) (A) (A) (A)
       Virtual   (A) (A) (A) (A) (A) (A) (A) (A) (A) (A) (A) (A)
                 (A) (A) (A) (A) (A) (A) (A) (A) (A) (A) (A) (A)
                 (A) (A) (A) (A) (A) (A) (A)
 The electronic state of the initial guess is 1-A.
 Requested convergence on RMS density matrix=1.00D-08 within 128 cycles.
 Requested convergence on MAX density matrix=1.00D-06.
 Requested convergence on             energy=1.00D-06.
 No special actions if energy rises.
 Keep R1 ints in memory in canonical form, NReq=4898789.
 SCF Done:  E(RHF) =  -459.611550426     A.U. after   10 cycles
             Convg  =    0.8582D-08             -V/T =  2.0089
 Range of M.O.s used for correlation:     1    75
 NBasis=    75 NAE=    44 NBE=    44 NFC=     0 NFV=     0
 NROrb=     75 NOA=    44 NOB=    44 NVA=    31 NVB=    31
          Differentiating once with respect to magnetic field using GIAOs.
          Electric field/nuclear overlap derivatives assumed to be zero.
          Keep R3 ints in memory in canonical form, NReq=4863575.
 FoFCou: FMM=F IPFlag=           0 FMFlag=           0 FMFlg1=           0
         NFxFlg=           0 DoJE=F BraDBF=F KetDBF=T FulRan=T
         Omega=  0.000000  0.000000  1.000000  0.000000  0.000000 ICntrl=    6100 IOpCl=  0
         NMat0=    1 NMatS0=    1 NMatT0=    0 NMatD0=    1 NMtDS0=    0 NMtDT0=    0
         I1Cent=           7 NGrid=          31.
 Symmetry not used in FoFCou.
          There are     3 degrees of freedom in the 1st order CPHF.  IDoFFX=0.
      3 vectors produced by pass  0 Test12= 4.55D-14 3.33D-08 XBig12= 7.26D+00 4.04D-01.
 AX will form     3 AO Fock derivatives at one time.
      3 vectors produced by pass  1 Test12= 4.55D-14 3.33D-08 XBig12= 1.05D-02 1.38D-02.
      3 vectors produced by pass  2 Test12= 4.55D-14 3.33D-08 XBig12= 9.22D-05 2.53D-03.
      3 vectors produced by pass  3 Test12= 4.55D-14 3.33D-08 XBig12= 1.80D-06 3.09D-04.
      3 vectors produced by pass  4 Test12= 4.55D-14 3.33D-08 XBig12= 1.72D-08 2.07D-05.
      3 vectors produced by pass  5 Test12= 4.55D-14 3.33D-08 XBig12= 2.36D-10 2.57D-06.
      3 vectors produced by pass  6 Test12= 4.55D-14 3.33D-08 XBig12= 2.60D-12 3.19D-07.
 Inverted reduced A of dimension    21 with in-core refinement.
 Calculating GIAO nuclear magnetic shielding tensors.
 SCF GIAO Magnetic shielding tensor (ppm):
      1  C    Isotropic =   220.9693   Anisotropy =    27.1974
   XX=   231.5039   YX=    -8.6065   ZX=    -8.6621
   XY=    -6.3075   YY=   217.3605   ZY=     0.9938
   XZ=   -13.7146   YZ=    -0.7112   ZZ=   214.0435
   Eigenvalues:   207.4065   216.4005   239.1009
      2  C    Isotropic =   216.4795   Anisotropy =     9.3463
   XX=   222.6202   YX=     0.5734   ZX=     0.9069
   XY=    -1.4247   YY=   219.6107   ZY=    -0.8307
   XZ=     0.1130   YZ=    -1.7729   ZZ=   207.2077
   Eigenvalues:   207.0587   219.6695   222.7104
      3  C    Isotropic =   189.2057   Anisotropy =    41.9440
   XX=   186.0821   YX=   -10.9029   ZX=     4.1460
   XY=    -9.0567   YY=   211.2463   ZY=    -9.5530
   XZ=     5.3063   YZ=    -9.8156   ZZ=   170.2887
   Eigenvalues:   167.7421   182.7066   217.1684
      4  C    Isotropic =   220.5791   Anisotropy =    15.8006
   XX=   223.6930   YX=    -7.2322   ZX=     4.6063
   XY=    -6.4499   YY=   224.1652   ZY=     1.5831
   XZ=     5.0497   YZ=     1.3117   ZZ=   213.8793
   Eigenvalues:   210.5471   220.0774   231.1129
      5  C    Isotropic =   208.6463   Anisotropy =    15.1919
   XX=   215.0756   YX=     9.1841   ZX=     1.4617
   XY=     2.9013   YY=   208.1043   ZY=     2.4367
   XZ=     1.2827   YZ=     0.1140   ZZ=   202.7591
   Eigenvalues:   202.4704   204.6943   218.7743
      6  C    Isotropic =   217.6292   Anisotropy =    15.1565
   XX=   225.3891   YX=     4.1322   ZX=     2.1478
   XY=     4.0679   YY=   219.9971   ZY=    -1.7658
   XZ=     3.0453   YZ=    -1.0485   ZZ=   207.5015
   Eigenvalues:   206.8188   218.3353   227.7335
      7  C    Isotropic =   216.2763   Anisotropy =    21.0731
   XX=   222.5563   YX=    -8.3787   ZX=    -4.0002
   XY=    -9.7199   YY=   219.6904   ZY=    -3.0238
   XZ=    -2.3570   YZ=    -1.4826   ZZ=   206.5822
   Eigenvalues:   204.6065   213.8975   230.3250
      8  O    Isotropic =   362.5744   Anisotropy =    58.2100
   XX=   397.3889   YX=   -15.4894   ZX=    -7.1287
   XY=    10.0299   YY=   333.8389   ZY=     3.8605
   XZ=   -19.4319   YZ=    -8.3933   ZZ=   356.4952
   Eigenvalues:   333.3296   353.0124   401.3810
      9  C    Isotropic =   214.6177   Anisotropy =    12.8696
   XX=   222.6189   YX=     1.4979   ZX=    -0.8679
   XY=     3.4282   YY=   206.1475   ZY=     0.3820
   XZ=    -1.9284   YZ=     0.3784   ZZ=   215.0867
   Eigenvalues:   205.7508   214.9049   223.1974
     10  C    Isotropic =   224.6006   Anisotropy =    19.6872
   XX=   220.6068   YX=     0.4945   ZX=    -2.1113
   XY=    -0.1199   YY=   218.7547   ZY=    -8.9115
   XZ=    -0.5770   YZ=    -6.5911   ZZ=   234.4404
   Eigenvalues:   215.5478   220.5287   237.7254
     11  C    Isotropic =   221.3455   Anisotropy =    27.2630
   XX=   224.6525   YX=     6.6669   ZX=    10.9434
   XY=    10.1332   YY=   212.0726   ZY=     6.1587
   XZ=     9.8342   YZ=     3.3054   ZZ=   227.3115
   Eigenvalues:   207.8554   216.6604   239.5209
     12  H    Isotropic =    32.5330   Anisotropy =    14.2215
   XX=    35.1835   YX=    -6.6478   ZX=     0.6367
   XY=    -6.5416   YY=    35.0225   ZY=    -2.6222
   XZ=     0.6203   YZ=    -2.1951   ZZ=    27.3929
   Eigenvalues:    26.3463    29.2387    42.0139
     13  H    Isotropic =    32.5252   Anisotropy =    10.2052
   XX=    32.0912   YX=    -0.9367   ZX=    -2.0865
   XY=    -1.2293   YY=    27.5462   ZY=     2.7436
   XZ=    -2.0487   YZ=     2.7346   ZZ=    37.9383
   Eigenvalues:    26.8050    31.4419    39.3287
     14  H    Isotropic =    32.3574   Anisotropy =    14.0545
   XX=    39.3053   YX=     4.7602   ZX=    -1.6818
   XY=     4.7127   YY=    31.4758   ZY=     0.0624
   XZ=    -1.9761   YZ=    -0.3602   ZZ=    26.2911
   Eigenvalues:    25.9745    29.3707    41.7271
     15  H    Isotropic =    32.3959   Anisotropy =    13.4788
   XX=    31.4180   YX=     0.5310   ZX=     5.1425
   XY=     0.2970   YY=    27.2242   ZY=     1.0524
   XZ=     5.2398   YZ=     1.2463   ZZ=    38.5454
   Eigenvalues:    27.1028    28.7030    41.3817
     16  H    Isotropic =    32.1497   Anisotropy =     6.4737
   XX=    31.0359   YX=     0.4531   ZX=    -1.5291
   XY=    -0.1276   YY=    29.4969   ZY=     0.3698
   XZ=    -1.4234   YZ=     1.7473   ZZ=    35.9165
   Eigenvalues:    29.2239    30.7598    36.4656
     17  H    Isotropic =    32.4651   Anisotropy =    12.4598
   XX=    31.4687   YX=    -1.5846   ZX=    -3.4361
   XY=    -1.7057   YY=    27.6844   ZY=     3.6375
   XZ=    -3.1879   YZ=     3.5042   ZZ=    38.2424
   Eigenvalues:    26.4978    30.1260    40.7717
     18  H    Isotropic =    32.6465   Anisotropy =    11.6637
   XX=    35.2354   YX=     3.5603   ZX=     1.3852
   XY=     3.9060   YY=    36.9194   ZY=     2.7662
   XZ=     1.1392   YZ=     2.2566   ZZ=    25.7847
   Eigenvalues:    25.2214    32.2957    40.4223
     19  H    Isotropic =    32.2105   Anisotropy =    10.4256
   XX=    30.3740   YX=     0.2115   ZX=     1.5885
   XY=    -0.1265   YY=    28.8011   ZY=    -3.6293
   XZ=     1.4504   YZ=    -4.1151   ZZ=    37.4563
   Eigenvalues:    27.2086    30.2619    39.1609
     20  H    Isotropic =    32.6851   Anisotropy =    13.7643
   XX=    32.3329   YX=    -3.9103   ZX=     0.5609
   XY=    -4.1984   YY=    40.0456   ZY=    -1.1818
   XZ=     0.4627   YZ=    -0.8013   ZZ=    25.6767
   Eigenvalues:    25.5989    30.5950    41.8612
     21  H    Isotropic =    32.7336   Anisotropy =    10.5783
   XX=    33.1273   YX=     0.4844   ZX=    -3.5852
   XY=     0.4076   YY=    28.2814   ZY=    -3.6567
   XZ=    -3.0037   YZ=    -3.8136   ZZ=    36.7919
   Eigenvalues:    26.7729    31.6421    39.7858
     22  H    Isotropic =    32.3868   Anisotropy =    10.3205
   XX=    32.0467   YX=     0.0771   ZX=    -3.8200
   XY=    -0.1953   YY=    29.5218   ZY=    -3.7789
   XZ=    -3.9364   YZ=    -4.1624   ZZ=    35.5919
   Eigenvalues:    26.8008    31.0925    39.2671
     23  H    Isotropic =    31.8196   Anisotropy =    14.0524
   XX=    33.2868   YX=     4.8094   ZX=     2.4061
   XY=     4.7195   YY=    36.5603   ZY=     3.4396
   XZ=     2.8151   YZ=     3.5737   ZZ=    25.6118
   Eigenvalues:    24.3840    29.8870    41.1879
     24  H    Isotropic =    34.4666   Anisotropy =    17.0242
   XX=    41.1467   YX=    -6.2878   ZX=    -4.5810
   XY=    -4.5244   YY=    37.3009   ZY=    -0.1581
   XZ=    -4.7338   YZ=     1.4717   ZZ=    24.9522
   Eigenvalues:    23.6605    33.9232    45.8161
     25  H    Isotropic =    32.9853   Anisotropy =    11.7107
   XX=    33.6422   YX=    -3.7597   ZX=    -0.2763
   XY=    -3.8741   YY=    38.5559   ZY=     1.3608
   XZ=    -0.6485   YZ=     1.4846   ZZ=    26.7579
   Eigenvalues:    26.5887    31.5748    40.7925
     26  H    Isotropic =    32.8064   Anisotropy =     9.1316
   XX=    30.7312   YX=    -1.5874   ZX=    -1.5780
   XY=    -1.3624   YY=    37.5848   ZY=    -3.1424
   XZ=    -1.6474   YZ=    -3.3853   ZZ=    30.1032
   Eigenvalues:    27.5587    31.9663    38.8941
     27  H    Isotropic =    32.7539   Anisotropy =    10.4243
   XX=    31.8785   YX=     2.9859   ZX=     1.7329
   XY=     2.8779   YY=    27.9759   ZY=     2.2271
   XZ=     1.8905   YZ=     2.5207   ZZ=    38.4072
   Eigenvalues:    26.2676    32.2906    39.7034
     28  H    Isotropic =    32.6722   Anisotropy =    14.7993
   XX=    38.3966   YX=     0.9327   ZX=    -6.1085
   XY=     1.0376   YY=    26.5847   ZY=    -1.0612
   XZ=    -6.1599   YZ=    -1.1484   ZZ=    33.0353
   Eigenvalues:    26.4005    29.0777    42.5384
     29  H    Isotropic =    32.5268   Anisotropy =    10.0788
   XX=    31.2936   YX=     0.7438   ZX=     1.9627
   XY=     0.6583   YY=    37.4299   ZY=     4.0793
   XZ=     1.9329   YZ=     3.9172   ZZ=    28.8569
   Eigenvalues:    26.7330    31.6014    39.2460
     30  H    Isotropic =    32.5555   Anisotropy =    13.0974
   XX=    30.6895   YX=     0.4879   ZX=     4.0857
   XY=     0.2828   YY=    27.9499   ZY=    -3.0566
   XZ=     3.7941   YZ=    -3.7400   ZZ=    39.0271
   Eigenvalues:    26.3658    30.0136    41.2871
     31  H    Isotropic =    32.4941   Anisotropy =    14.4934
   XX=    42.0296   YX=     1.2568   ZX=    -0.0574
   XY=     1.5566   YY=    26.5133   ZY=     0.4471
   XZ=    -0.1389   YZ=     0.5327   ZZ=    28.9393
   Eigenvalues:    26.2936    29.0324    42.1564
 End of Minotr Frequency-dependent properties file   721 does not exist.
 End of Minotr Frequency-dependent properties file   722 does not exist.

 **********************************************************************

            Population analysis using the SCF density.

 **********************************************************************

 Orbital symmetries:
       Occupied  (A) (A) (A) (A) (A) (A) (A) (A) (A) (A) (A) (A)
                 (A) (A) (A) (A) (A) (A) (A) (A) (A) (A) (A) (A)
                 (A) (A) (A) (A) (A) (A) (A) (A) (A) (A) (A) (A)
                 (A) (A) (A) (A) (A) (A) (A) (A)
       Virtual   (A) (A) (A) (A) (A) (A) (A) (A) (A) (A) (A) (A)
                 (A) (A) (A) (A) (A) (A) (A) (A) (A) (A) (A) (A)
                 (A) (A) (A) (A) (A) (A) (A)
 The electronic state is 1-A.
 Alpha  occ. eigenvalues --  -20.23645 -11.08373 -11.05176 -11.04558 -11.04106
 Alpha  occ. eigenvalues --  -11.03677 -11.03552 -11.03506 -11.03444 -11.03341
 Alpha  occ. eigenvalues --  -11.03055  -1.27692  -1.08274  -1.03940  -0.96609
 Alpha  occ. eigenvalues --   -0.94661  -0.89465  -0.87951  -0.80947  -0.77841
 Alpha  occ. eigenvalues --   -0.72769  -0.68513  -0.63597  -0.62066  -0.59137
 Alpha  occ. eigenvalues --   -0.57713  -0.55589  -0.54824  -0.53642  -0.51516
 Alpha  occ. eigenvalues --   -0.50679  -0.50546  -0.49513  -0.48520  -0.47691
 Alpha  occ. eigenvalues --   -0.45945  -0.43494  -0.42879  -0.42206  -0.40931
 Alpha  occ. eigenvalues --   -0.39780  -0.38795  -0.36718  -0.32975
 Alpha virt. eigenvalues --    0.53244   0.55563   0.57476   0.57894   0.60211
 Alpha virt. eigenvalues --    0.60995   0.62224   0.64853   0.65573   0.66891
 Alpha virt. eigenvalues --    0.67173   0.68854   0.69763   0.71124   0.71761
 Alpha virt. eigenvalues --    0.72118   0.72948   0.73876   0.75007   0.75679
 Alpha virt. eigenvalues --    0.76107   0.78454   0.78844   0.80109   0.80647
 Alpha virt. eigenvalues --    0.80843   0.81513   0.84524   0.85590   0.85921
 Alpha virt. eigenvalues --    0.87749
          Condensed to atoms (all electrons):
              1          2          3          4          5          6
     1  C    4.740597   0.365190   0.000726  -0.000134   0.000011  -0.023925
     2  C    0.365190   4.746105  -0.020222  -0.021827  -0.002601   0.361769
     3  C    0.000726  -0.020222   4.742980  -0.020161   0.355112  -0.007963
     4  C   -0.000134  -0.021827  -0.020161   4.757169   0.357627   0.362973
     5  C    0.000011  -0.002601   0.355112   0.357627   4.797906  -0.020754
     6  C   -0.023925   0.361769  -0.007963   0.362973  -0.020754   4.758902
     7  C   -0.024875   0.361716   0.361112  -0.006473  -0.023330  -0.022037
     8  O   -0.000001   0.000237   0.267851   0.000232  -0.018603   0.000007
     9  C    0.000000   0.000003  -0.020370  -0.019571   0.357962   0.000288
    10  C    0.000000   0.000004  -0.001506  -0.002057  -0.020342  -0.000282
    11  C    0.000000   0.000000   0.000623  -0.001591  -0.021883   0.000009
    12  H    0.382466  -0.020238  -0.000017   0.000022  -0.000001  -0.002359
    13  H    0.382116  -0.020698   0.000015  -0.000024   0.000012  -0.001925
    14  H    0.382477  -0.020118   0.000014  -0.000012  -0.000001   0.001283
    15  H   -0.025008   0.383316  -0.000102   0.001269   0.000023  -0.024833
    16  H    0.000002  -0.001925   0.375355   0.000110  -0.024766  -0.000142
    17  H    0.000030  -0.002207   0.000570   0.382142  -0.022370  -0.023876
    18  H   -0.000009   0.001244   0.000945   0.382823  -0.019829  -0.021578
    19  H    0.000000   0.000068  -0.024017  -0.023946   0.380326   0.001222
    20  H   -0.005238  -0.020790   0.000071  -0.021125   0.001172   0.383051
    21  H    0.001325  -0.022617  -0.000125  -0.023637  -0.001956   0.382026
    22  H   -0.005195  -0.020955  -0.023172  -0.000009  -0.002673   0.000099
    23  H   -0.000022  -0.020720  -0.020713   0.000050   0.001184   0.001149
    24  H    0.000000  -0.000041  -0.040648  -0.000008  -0.001560  -0.000001
    25  H    0.000000   0.000000  -0.002535   0.001088  -0.023134  -0.000016
    26  H    0.000000   0.000001   0.000031  -0.000384  -0.001452  -0.000385
    27  H    0.000000   0.000004  -0.000690   0.000039  -0.001632  -0.000136
    28  H    0.000000   0.000000   0.000015   0.000012   0.001115   0.000007
    29  H    0.000000   0.000000  -0.000002  -0.000652  -0.001337   0.000007
    30  H    0.000000   0.000000   0.000022   0.000052  -0.002535  -0.000001
    31  H    0.000000   0.000000  -0.000014   0.000012   0.001160   0.000000
              7          8          9         10         11         12
     1  C   -0.024875  -0.000001   0.000000   0.000000   0.000000   0.382466
     2  C    0.361716   0.000237   0.000003   0.000004   0.000000  -0.020238
     3  C    0.361112   0.267851  -0.020370  -0.001506   0.000623  -0.000017
     4  C   -0.006473   0.000232  -0.019571  -0.002057  -0.001591   0.000022
     5  C   -0.023330  -0.018603   0.357962  -0.020342  -0.021883  -0.000001
     6  C   -0.022037   0.000007   0.000288  -0.000282   0.000009  -0.002359
     7  C    4.765121  -0.019187   0.000606   0.000007  -0.000004   0.001302
     8  O   -0.019187   7.846907  -0.000463   0.000011   0.000000   0.000000
     9  C    0.000606  -0.000463   4.744959   0.364188   0.364742   0.000000
    10  C    0.000007   0.000011   0.364188   4.744191  -0.025900   0.000000
    11  C   -0.000004   0.000000   0.364742  -0.025900   4.743282   0.000000
    12  H    0.001302   0.000000   0.000000   0.000000   0.000000   0.632001
    13  H   -0.002298   0.000000   0.000000   0.000000   0.000000  -0.021865
    14  H   -0.002232   0.000000   0.000000   0.000000   0.000000  -0.021724
    15  H   -0.023986  -0.000003   0.000001   0.000001   0.000000  -0.002550
    16  H   -0.025237  -0.018517  -0.002970  -0.000711   0.000006   0.000000
    17  H   -0.000063  -0.000004   0.001151   0.000014   0.000031   0.000013
    18  H    0.000045  -0.000004  -0.004470  -0.000460  -0.000776  -0.000001
    19  H   -0.000948  -0.001531  -0.024861   0.001178  -0.003868   0.000000
    20  H    0.001096   0.000000  -0.000012   0.000005   0.000000   0.000077
    21  H    0.000258   0.000001   0.000119  -0.000413   0.000002   0.000048
    22  H    0.380508  -0.000451   0.000010  -0.000001   0.000000   0.000072
    23  H    0.382191  -0.000723  -0.000014   0.000000   0.000000  -0.000022
    24  H    0.002669   0.257490  -0.000592   0.000021  -0.000016   0.000000
    25  H    0.000013  -0.000430   0.380643  -0.025142  -0.025244   0.000000
    26  H   -0.000002   0.000000  -0.020255   0.382583  -0.002299   0.000000
    27  H   -0.000005   0.000007  -0.019854   0.382352   0.001321   0.000000
    28  H    0.000000   0.000000  -0.019978   0.382295  -0.002425   0.000000
    29  H    0.000000   0.000000  -0.020004  -0.002311   0.382388   0.000000
    30  H    0.000000   0.000001  -0.020208   0.001307   0.382250   0.000000
    31  H    0.000000   0.000000  -0.019970  -0.002150   0.382355   0.000000
             13         14         15         16         17         18
     1  C    0.382116   0.382477  -0.025008   0.000002   0.000030  -0.000009
     2  C   -0.020698  -0.020118   0.383316  -0.001925  -0.002207   0.001244
     3  C    0.000015   0.000014  -0.000102   0.375355   0.000570   0.000945
     4  C   -0.000024  -0.000012   0.001269   0.000110   0.382142   0.382823
     5  C    0.000012  -0.000001   0.000023  -0.024766  -0.022370  -0.019829
     6  C   -0.001925   0.001283  -0.024833  -0.000142  -0.023876  -0.021578
     7  C   -0.002298  -0.002232  -0.023986  -0.025237  -0.000063   0.000045
     8  O    0.000000   0.000000  -0.000003  -0.018517  -0.000004  -0.000004
     9  C    0.000000   0.000000   0.000001  -0.002970   0.001151  -0.004470
    10  C    0.000000   0.000000   0.000001  -0.000711   0.000014  -0.000460
    11  C    0.000000   0.000000   0.000000   0.000006   0.000031  -0.000776
    12  H   -0.021865  -0.021724  -0.002550   0.000000   0.000013  -0.000001
    13  H    0.631447  -0.021646   0.001942  -0.000001   0.000015  -0.000011
    14  H   -0.021646   0.629522  -0.002279   0.000000  -0.000011   0.000001
    15  H    0.001942  -0.002279   0.653776   0.000281   0.000004  -0.000034
    16  H   -0.000001   0.000000   0.000281   0.662318  -0.000024  -0.000026
    17  H    0.000015  -0.000011   0.000004  -0.000024   0.647534  -0.024200
    18  H   -0.000011   0.000001  -0.000034  -0.000026  -0.024200   0.638090
    19  H    0.000000   0.000000   0.000001   0.001805  -0.007379   0.000828
    20  H    0.000040   0.000074   0.000432   0.000003  -0.002262  -0.002387
    21  H    0.000002  -0.000038  -0.006268  -0.000516   0.002079  -0.002254
    22  H    0.000325  -0.000122   0.001853   0.001965  -0.000319   0.000000
    23  H    0.000007   0.000172  -0.005534  -0.002202   0.000004   0.000001
    24  H    0.000000   0.000000   0.000001  -0.004402   0.000000   0.000000
    25  H    0.000000   0.000000   0.000000   0.000095  -0.000030   0.000045
    26  H    0.000000   0.000000   0.000000   0.000034   0.000005  -0.000302
    27  H    0.000000   0.000000   0.000001  -0.000384  -0.000003   0.000036
    28  H    0.000000   0.000000   0.000000  -0.000017   0.000000  -0.000017
    29  H    0.000000   0.000000   0.000000   0.000000  -0.000039  -0.000401
    30  H    0.000000   0.000000   0.000000   0.000000  -0.000010   0.000036
    31  H    0.000000   0.000000   0.000000   0.000000   0.000001  -0.000015
             19         20         21         22         23         24
     1  C    0.000000  -0.005238   0.001325  -0.005195  -0.000022   0.000000
     2  C    0.000068  -0.020790  -0.022617  -0.020955  -0.020720  -0.000041
     3  C   -0.024017   0.000071  -0.000125  -0.023172  -0.020713  -0.040648
     4  C   -0.023946  -0.021125  -0.023637  -0.000009   0.000050  -0.000008
     5  C    0.380326   0.001172  -0.001956  -0.002673   0.001184  -0.001560
     6  C    0.001222   0.383051   0.382026   0.000099   0.001149  -0.000001
     7  C   -0.000948   0.001096   0.000258   0.380508   0.382191   0.002669
     8  O   -0.001531   0.000000   0.000001  -0.000451  -0.000723   0.257490
     9  C   -0.024861  -0.000012   0.000119   0.000010  -0.000014  -0.000592
    10  C    0.001178   0.000005  -0.000413  -0.000001   0.000000   0.000021
    11  C   -0.003868   0.000000   0.000002   0.000000   0.000000  -0.000016
    12  H    0.000000   0.000077   0.000048   0.000072  -0.000022   0.000000
    13  H    0.000000   0.000040   0.000002   0.000325   0.000007   0.000000
    14  H    0.000000   0.000074  -0.000038  -0.000122   0.000172   0.000000
    15  H    0.000001   0.000432  -0.006268   0.001853  -0.005534   0.000001
    16  H    0.001805   0.000003  -0.000516   0.001965  -0.002202  -0.004402
    17  H   -0.007379  -0.002262   0.002079  -0.000319   0.000004   0.000000
    18  H    0.000828  -0.002387  -0.002254   0.000000   0.000001   0.000000
    19  H    0.648671  -0.000033  -0.000002   0.000295  -0.000017   0.000059
    20  H   -0.000033   0.637977  -0.023940  -0.000019  -0.000025   0.000000
    21  H   -0.000002  -0.023940   0.648824  -0.000024  -0.000016   0.000000
    22  H    0.000295  -0.000019  -0.000024   0.637039  -0.024477   0.000002
    23  H   -0.000017  -0.000025  -0.000016  -0.024477   0.630662   0.000041
    24  H    0.000059   0.000000   0.000000   0.000002   0.000041   0.611000
    25  H   -0.001540   0.000001  -0.000007   0.000000  -0.000001  -0.000153
    26  H    0.000006   0.000019  -0.000265   0.000000   0.000000   0.000000
    27  H    0.000008   0.000002  -0.000165   0.000000   0.000001   0.000002
    28  H   -0.000032   0.000000   0.000009   0.000000   0.000000   0.000000
    29  H    0.000007   0.000001   0.000000   0.000000   0.000000   0.000000
    30  H    0.000203   0.000000   0.000000   0.000000   0.000000   0.000000
    31  H    0.000050   0.000000   0.000000   0.000000   0.000000   0.000002
             25         26         27         28         29         30
     1  C    0.000000   0.000000   0.000000   0.000000   0.000000   0.000000
     2  C    0.000000   0.000001   0.000004   0.000000   0.000000   0.000000
     3  C   -0.002535   0.000031  -0.000690   0.000015  -0.000002   0.000022
     4  C    0.001088  -0.000384   0.000039   0.000012  -0.000652   0.000052
     5  C   -0.023134  -0.001452  -0.001632   0.001115  -0.001337  -0.002535
     6  C   -0.000016  -0.000385  -0.000136   0.000007   0.000007  -0.000001
     7  C    0.000013  -0.000002  -0.000005   0.000000   0.000000   0.000000
     8  O   -0.000430   0.000000   0.000007   0.000000   0.000000   0.000001
     9  C    0.380643  -0.020255  -0.019854  -0.019978  -0.020004  -0.020208
    10  C   -0.025142   0.382583   0.382352   0.382295  -0.002311   0.001307
    11  C   -0.025244  -0.002299   0.001321  -0.002425   0.382388   0.382250
    12  H    0.000000   0.000000   0.000000   0.000000   0.000000   0.000000
    13  H    0.000000   0.000000   0.000000   0.000000   0.000000   0.000000
    14  H    0.000000   0.000000   0.000000   0.000000   0.000000   0.000000
    15  H    0.000000   0.000000   0.000001   0.000000   0.000000   0.000000
    16  H    0.000095   0.000034  -0.000384  -0.000017   0.000000   0.000000
    17  H   -0.000030   0.000005  -0.000003   0.000000  -0.000039  -0.000010
    18  H    0.000045  -0.000302   0.000036  -0.000017  -0.000401   0.000036
    19  H   -0.001540   0.000006   0.000008  -0.000032   0.000007   0.000203
    20  H    0.000001   0.000019   0.000002   0.000000   0.000001   0.000000
    21  H   -0.000007  -0.000265  -0.000165   0.000009   0.000000   0.000000
    22  H    0.000000   0.000000   0.000000   0.000000   0.000000   0.000000
    23  H   -0.000001   0.000000   0.000001   0.000000   0.000000   0.000000
    24  H   -0.000153   0.000000   0.000002   0.000000   0.000000   0.000000
    25  H    0.663408   0.001918  -0.002040  -0.002692   0.001927  -0.002062
    26  H    0.001918   0.628188  -0.021721  -0.021917   0.000342   0.000013
    27  H   -0.002040  -0.021721   0.632571  -0.022052   0.000013  -0.000037
    28  H   -0.002692  -0.021917  -0.022052   0.630376  -0.000014   0.000029
    29  H    0.001927   0.000342   0.000013  -0.000014   0.629429  -0.021624
    30  H   -0.002062   0.000013  -0.000037   0.000029  -0.021624   0.629853
    31  H   -0.002902  -0.000013   0.000023   0.000107  -0.022059  -0.021706
             31
     1  C    0.000000
     2  C    0.000000
     3  C   -0.000014
     4  C    0.000012
     5  C    0.001160
     6  C    0.000000
     7  C    0.000000
     8  O    0.000000
     9  C   -0.019970
    10  C   -0.002150
    11  C    0.382355
    12  H    0.000000
    13  H    0.000000
    14  H    0.000000
    15  H    0.000000
    16  H    0.000000
    17  H    0.000001
    18  H   -0.000015
    19  H    0.000050
    20  H    0.000000
    21  H    0.000000
    22  H    0.000000
    23  H    0.000000
    24  H    0.000002
    25  H   -0.002902
    26  H   -0.000013
    27  H    0.000023
    28  H    0.000107
    29  H   -0.022059
    30  H   -0.021706
    31  H    0.631045
 Mulliken atomic charges:
              1
     1  C   -0.170535
     2  C   -0.024695
     3  C    0.076817
     4  C   -0.104009
     5  C   -0.042850
     6  C   -0.102579
     7  C   -0.105965
     8  O   -0.312827
     9  C   -0.021081
    10  C   -0.176883
    11  C   -0.173004
    12  H    0.052777
    13  H    0.052546
    14  H    0.054642
    15  H    0.047699
    16  H    0.039864
    17  H    0.049203
    18  H    0.052681
    19  H    0.053445
    20  H    0.051812
    21  H    0.047550
    22  H    0.055250
    23  H    0.059023
    24  H    0.176137
    25  H    0.038792
    26  H    0.055856
    27  H    0.052338
    28  H    0.055178
    29  H    0.054329
    30  H    0.054416
    31  H    0.054075
 Sum of Mulliken atomic charges =   0.00000
 Mulliken charges with hydrogens summed into heavy atoms:
              1
     1  C   -0.010570
     2  C    0.023004
     3  C    0.116680
     4  C   -0.002125
     5  C    0.010595
     6  C   -0.003217
     7  C    0.008308
     8  O   -0.136690
     9  C    0.017711
    10  C   -0.013512
    11  C   -0.010184
 Sum of Mulliken charges with hydrogens summed into heavy atoms =   0.00000
 Electronic spatial extent (au):  <R**2>=           2106.0442
 Charge=              0.0000 electrons
 Dipole moment (field-independent basis, Debye):
    X=             -0.7537    Y=             -1.0198    Z=              0.6361  Tot=              1.4187
 Quadrupole moment (field-independent basis, Debye-Ang):
   XX=            -66.0913   YY=            -71.5933   ZZ=            -67.4294
   XY=             -2.2646   XZ=             -0.3773   YZ=              1.7992
 Traceless Quadrupole moment (field-independent basis, Debye-Ang):
   XX=              2.2800   YY=             -3.2220   ZZ=              0.9420
   XY=             -2.2646   XZ=             -0.3773   YZ=              1.7992
 Octapole moment (field-independent basis, Debye-Ang**2):
  XXX=             -5.6576  YYY=             -0.1574  ZZZ=             -1.7738  XYY=             -6.6486
  XXY=             10.9625  XXZ=              2.3285  XZZ=              0.6579  YZZ=              6.0587
  YYZ=              4.3581  XYZ=             -0.7964
 Hexadecapole moment (field-independent basis, Debye-Ang**3):
 XXXX=          -1746.6943 YYYY=           -641.5204 ZZZZ=           -308.1334 XXXY=             -4.8791
 XXXZ=             -2.7586 YYYX=            -24.0589 YYYZ=             10.6645 ZZZX=              1.0734
 ZZZY=             -0.8170 XXYY=           -378.4832 XXZZ=           -346.7126 YYZZ=           -156.4577
 XXYZ=             -1.5442 YYXZ=             -1.0324 ZZXY=             -3.2625
 N-N= 6.936361996566D+02 E-N=-2.459166797705D+03  KE= 4.555483039615D+02
 ******************************Gaussian NBO Version 3.1******************************
             N A T U R A L   A T O M I C   O R B I T A L   A N D
          N A T U R A L   B O N D   O R B I T A L   A N A L Y S I S
 ******************************Gaussian NBO Version 3.1******************************
       /RESON  / : Allow strongly delocalized NBO set
       /NLMO   / : Form Natural Localized Molecular Orbitals
       /NMR /    : Analyze NMR Sheilding Tensor 

 Analyzing the SCF density

 Job title: comment                                                         

 Storage needed:     19864 in NPA,     23691 in NBO,     45933 in NLMO (  33549317 available)


 NATURAL POPULATIONS:  Natural atomic orbital occupancies 
                                                          
   NAO  Atom  No  lang   Type(AO)    Occupancy      Energy
 ----------------------------------------------------------
     1    C    1  S      Cor( 1S)     1.99997     -10.96414
     2    C    1  S      Val( 2S)     1.08054      -0.18113
     3    C    1  px     Val( 2p)     1.00350       0.08717
     4    C    1  py     Val( 2p)     1.02493       0.08551
     5    C    1  pz     Val( 2p)     1.01651       0.08741

     6    C    2  S      Cor( 1S)     1.99997     -10.98850
     7    C    2  S      Val( 2S)     1.08092      -0.19223
     8    C    2  px     Val( 2p)     0.95963       0.10877
     9    C    2  py     Val( 2p)     0.95346       0.11258
    10    C    2  pz     Val( 2p)     0.99187       0.10264

    11    C    3  S      Cor( 1S)     1.99989     -11.03259
    12    C    3  S      Val( 2S)     1.08680      -0.21400
    13    C    3  px     Val( 2p)     0.96462       0.08309
    14    C    3  py     Val( 2p)     0.83471       0.12379
    15    C    3  pz     Val( 2p)     0.96927       0.09855

    16    C    4  S      Cor( 1S)     1.99995     -10.97545
    17    C    4  S      Val( 2S)     1.08453      -0.18982
    18    C    4  px     Val( 2p)     0.99495       0.09364
    19    C    4  py     Val( 2p)     0.98623       0.09892
    20    C    4  pz     Val( 2p)     1.00056       0.09265

    21    C    5  S      Cor( 1S)     1.99995     -10.98707
    22    C    5  S      Val( 2S)     1.10679      -0.21429
    23    C    5  px     Val( 2p)     0.95446       0.10739
    24    C    5  py     Val( 2p)     0.96495       0.10388
    25    C    5  pz     Val( 2p)     0.99594       0.09491

    26    C    6  S      Cor( 1S)     1.99996     -10.97372
    27    C    6  S      Val( 2S)     1.08389      -0.18795
    28    C    6  px     Val( 2p)     0.98693       0.09633
    29    C    6  py     Val( 2p)     0.99539       0.09623
    30    C    6  pz     Val( 2p)     0.99914       0.09530

    31    C    7  S      Cor( 1S)     1.99996     -10.97291
    32    C    7  S      Val( 2S)     1.09044      -0.19251
    33    C    7  px     Val( 2p)     0.97877       0.09632
    34    C    7  py     Val( 2p)     0.99189       0.09695
    35    C    7  pz     Val( 2p)     1.02178       0.08969

    36    O    8  S      Cor( 1S)     1.99999     -20.13990
    37    O    8  S      Val( 2S)     1.74962      -0.99712
    38    O    8  px     Val( 2p)     1.34612      -0.11780
    39    O    8  py     Val( 2p)     1.38053      -0.12640
    40    O    8  pz     Val( 2p)     1.85745      -0.32462

    41    C    9  S      Cor( 1S)     1.99996     -10.99578
    42    C    9  S      Val( 2S)     1.08537      -0.20130
    43    C    9  px     Val( 2p)     0.96146       0.10232
    44    C    9  py     Val( 2p)     0.98138       0.09984
    45    C    9  pz     Val( 2p)     0.95124       0.10781

    46    C   10  S      Cor( 1S)     1.99997     -10.96865
    47    C   10  S      Val( 2S)     1.07983      -0.18578
    48    C   10  px     Val( 2p)     1.03072       0.07727
    49    C   10  py     Val( 2p)     1.02286       0.08066
    50    C   10  pz     Val( 2p)     0.99982       0.08335

    51    C   11  S      Cor( 1S)     1.99997     -10.96726
    52    C   11  S      Val( 2S)     1.08132      -0.18517
    53    C   11  px     Val( 2p)     1.01415       0.08165
    54    C   11  py     Val( 2p)     1.02154       0.08399
    55    C   11  pz     Val( 2p)     1.01174       0.08316

    56    H   12  S      Val( 1S)     0.96459       0.07505

    57    H   13  S      Val( 1S)     0.96485       0.07472

    58    H   14  S      Val( 1S)     0.96283       0.07589

    59    H   15  S      Val( 1S)     0.97666       0.06714

    60    H   16  S      Val( 1S)     0.99571       0.04878

    61    H   17  S      Val( 1S)     0.97167       0.07055

    62    H   18  S      Val( 1S)     0.96840       0.07321

    63    H   19  S      Val( 1S)     0.97215       0.06958

    64    H   20  S      Val( 1S)     0.96876       0.07112

    65    H   21  S      Val( 1S)     0.97326       0.07034

    66    H   22  S      Val( 1S)     0.96571       0.07679

    67    H   23  S      Val( 1S)     0.96193       0.07877

    68    H   24  S      Val( 1S)     0.81159       0.07901

    69    H   25  S      Val( 1S)     0.98586       0.05510

    70    H   26  S      Val( 1S)     0.96155       0.07325

    71    H   27  S      Val( 1S)     0.96487       0.07120

    72    H   28  S      Val( 1S)     0.96182       0.07091

    73    H   29  S      Val( 1S)     0.96336       0.07437

    74    H   30  S      Val( 1S)     0.96314       0.07347

    75    H   31  S      Val( 1S)     0.96326       0.07185


 Summary of Natural Population Analysis:                  
                                                          
                                       Natural Population 
                Natural  -----------------------------------------------
    Atom  No    Charge         Core      Valence    Rydberg      Total
 -----------------------------------------------------------------------
      C    1   -0.12546      1.99997     4.12548    0.00000     6.12546
      C    2    0.01416      1.99997     3.98588    0.00000     5.98584
      C    3    0.14472      1.99989     3.85540    0.00000     5.85528
      C    4   -0.06622      1.99995     4.06626    0.00000     6.06622
      C    5   -0.02209      1.99995     4.02214    0.00000     6.02209
      C    6   -0.06531      1.99996     4.06535    0.00000     6.06531
      C    7   -0.08283      1.99996     4.08287    0.00000     6.08283
      O    8   -0.33371      1.99999     6.33372    0.00000     8.33371
      C    9    0.02059      1.99996     3.97945    0.00000     5.97941
      C   10   -0.13320      1.99997     4.13323    0.00000     6.13320
      C   11   -0.12871      1.99997     4.12874    0.00000     6.12871
      H   12    0.03541      0.00000     0.96459    0.00000     0.96459
      H   13    0.03515      0.00000     0.96485    0.00000     0.96485
      H   14    0.03717      0.00000     0.96283    0.00000     0.96283
      H   15    0.02334      0.00000     0.97666    0.00000     0.97666
      H   16    0.00429      0.00000     0.99571    0.00000     0.99571
      H   17    0.02833      0.00000     0.97167    0.00000     0.97167
      H   18    0.03160      0.00000     0.96840    0.00000     0.96840
      H   19    0.02785      0.00000     0.97215    0.00000     0.97215
      H   20    0.03124      0.00000     0.96876    0.00000     0.96876
      H   21    0.02674      0.00000     0.97326    0.00000     0.97326
      H   22    0.03429      0.00000     0.96571    0.00000     0.96571
      H   23    0.03807      0.00000     0.96193    0.00000     0.96193
      H   24    0.18841      0.00000     0.81159    0.00000     0.81159
      H   25    0.01414      0.00000     0.98586    0.00000     0.98586
      H   26    0.03845      0.00000     0.96155    0.00000     0.96155
      H   27    0.03513      0.00000     0.96487    0.00000     0.96487
      H   28    0.03818      0.00000     0.96182    0.00000     0.96182
      H   29    0.03664      0.00000     0.96336    0.00000     0.96336
      H   30    0.03686      0.00000     0.96314    0.00000     0.96314
      H   31    0.03674      0.00000     0.96326    0.00000     0.96326
 =======================================================================
   * Total *    0.00000     21.99954    66.00046    0.00000    88.00000

                                 Natural Population      
 --------------------------------------------------------
   Core                      21.99954 ( 99.9979% of  22)
   Valence                   66.00046 (100.0007% of  66)
   Natural Minimal Basis     88.00000 (100.0000% of  88)
   Natural Rydberg Basis      0.00000 (  0.0000% of  88)
 --------------------------------------------------------

    Atom  No          Natural Electron Configuration
 ----------------------------------------------------------------------------
      C    1      [core]2S( 1.08)2p( 3.04)
      C    2      [core]2S( 1.08)2p( 2.90)
      C    3      [core]2S( 1.09)2p( 2.77)
      C    4      [core]2S( 1.08)2p( 2.98)
      C    5      [core]2S( 1.11)2p( 2.92)
      C    6      [core]2S( 1.08)2p( 2.98)
      C    7      [core]2S( 1.09)2p( 2.99)
      O    8      [core]2S( 1.75)2p( 4.58)
      C    9      [core]2S( 1.09)2p( 2.89)
      C   10      [core]2S( 1.08)2p( 3.05)
      C   11      [core]2S( 1.08)2p( 3.05)
      H   12            1S( 0.96)
      H   13            1S( 0.96)
      H   14            1S( 0.96)
      H   15            1S( 0.98)
      H   16            1S( 1.00)
      H   17            1S( 0.97)
      H   18            1S( 0.97)
      H   19            1S( 0.97)
      H   20            1S( 0.97)
      H   21            1S( 0.97)
      H   22            1S( 0.97)
      H   23            1S( 0.96)
      H   24            1S( 0.81)
      H   25            1S( 0.99)
      H   26            1S( 0.96)
      H   27            1S( 0.96)
      H   28            1S( 0.96)
      H   29            1S( 0.96)
      H   30            1S( 0.96)
      H   31            1S( 0.96)


 NATURAL BOND ORBITAL ANALYSIS:

                       Occupancies       Lewis Structure    Low   High
           Occ.    -------------------  -----------------   occ   occ
  Cycle   Thresh.   Lewis   Non-Lewis     CR  BD  3C  LP    (L)   (NL)   Dev
 =============================================================================
   1(1)    1.90    87.64207   0.35793     11  31   0   2     0      0    0.02
 -----------------------------------------------------------------------------

 Structure accepted: No low occupancy Lewis orbitals

 --------------------------------------------------------
   Core                     21.99954 ( 99.998% of  22)
   Valence Lewis            65.64253 ( 99.458% of  66)
  ==================       ============================
   Total Lewis              87.64207 ( 99.593% of  88)
  -----------------------------------------------------
   Valence non-Lewis         0.35793 (  0.407% of  88)
   Rydberg non-Lewis         0.00000 (  0.000% of  88)
  ==================       ============================
   Total non-Lewis           0.35793 (  0.407% of  88)
 --------------------------------------------------------


       (Occupancy)   Bond orbital/ Coefficients/ Hybrids
 ---------------------------------------------------------------------------------
     1. (1.99025) BD ( 1) C   1 - C   2  
                ( 50.84%)   0.7130* C   1 s( 25.72%)p 2.89( 74.28%)
                                            0.0001  0.5071 -0.6939  0.2230  0.4600
                ( 49.16%)   0.7011* C   2 s( 25.00%)p 3.00( 75.00%)
                                            0.0000  0.5000  0.6778 -0.2297 -0.4877
     2. (1.99490) BD ( 1) C   1 - H  12  
                ( 51.78%)   0.7196* C   1 s( 24.69%)p 3.05( 75.31%)
                                            0.0000  0.4969  0.3445 -0.7274  0.3245
                ( 48.22%)   0.6944* H  12 s(100.00%)
                                            1.0000
     3. (1.99513) BD ( 1) C   1 - H  13  
                ( 51.79%)   0.7197* C   1 s( 24.83%)p 3.03( 75.17%)
                                            0.0000  0.4983 -0.2268 -0.1354 -0.8258
                ( 48.21%)   0.6943* H  13 s(100.00%)
                                            1.0000
     4. (1.99502) BD ( 1) C   1 - H  14  
                ( 51.87%)   0.7202* C   1 s( 24.76%)p 3.04( 75.24%)
                                            0.0000  0.4976  0.5902  0.6347  0.0341
                ( 48.13%)   0.6938* H  14 s(100.00%)
                                            1.0000
     5. (1.98561) BD ( 1) C   2 - C   6  
                ( 49.63%)   0.7045* C   2 s( 25.27%)p 2.96( 74.73%)
                                            0.0000  0.5027 -0.6045 -0.6170 -0.0341
                ( 50.37%)   0.7097* C   6 s( 25.44%)p 2.93( 74.56%)
                                            0.0001  0.5044  0.5937  0.6266 -0.0219
     6. (1.98311) BD ( 1) C   2 - C   7  
                ( 49.49%)   0.7035* C   2 s( 25.30%)p 2.95( 74.70%)
                                            0.0000  0.5030 -0.3267  0.7459 -0.2896
                ( 50.51%)   0.7107* C   7 s( 25.63%)p 2.90( 74.37%)
                                            0.0001  0.5062  0.2938 -0.7640  0.2716
     7. (1.98623) BD ( 1) C   2 - H  15  
                ( 51.09%)   0.7148* C   2 s( 24.43%)p 3.09( 75.57%)
                                            0.0000  0.4942  0.2617  0.1008  0.8228
                ( 48.91%)   0.6994* H  15 s(100.00%)
                                            1.0000
     8. (1.98245) BD ( 1) C   3 - C   5  
                ( 49.92%)   0.7066* C   3 s( 25.74%)p 2.89( 74.26%)
                                            0.0001  0.5073 -0.4601 -0.5883 -0.4298
                ( 50.08%)   0.7076* C   5 s( 25.16%)p 2.97( 74.84%)
                                            0.0000  0.5016  0.4571  0.5627  0.4720
     9. (1.98613) BD ( 1) C   3 - C   7  
                ( 49.99%)   0.7070* C   3 s( 26.21%)p 2.82( 73.79%)
                                            0.0000  0.5120  0.8345 -0.0721 -0.1904
                ( 50.01%)   0.7072* C   7 s( 25.02%)p 3.00( 74.98%)
                                            0.0001  0.5002 -0.8432  0.0724  0.1832
    10. (1.98857) BD ( 1) C   3 - O   8  
                ( 41.08%)   0.6410* C   3 s( 22.36%)p 3.47( 77.64%)
                                           -0.0001  0.4728 -0.2762  0.8009 -0.2424
                ( 58.92%)   0.7676* O   8 s( 16.29%)p 5.14( 83.71%)
                                            0.0000  0.4037  0.1947 -0.8529  0.2677
    11. (1.98837) BD ( 1) C   3 - H  16  
                ( 50.52%)   0.7108* C   3 s( 25.69%)p 2.89( 74.31%)
                                            0.0000  0.5069 -0.1247 -0.0854  0.8487
                ( 49.48%)   0.7034* H  16 s(100.00%)
                                            1.0000
    12. (1.98456) BD ( 1) C   4 - C   5  
                ( 50.30%)   0.7092* C   4 s( 25.51%)p 2.92( 74.49%)
                                            0.0001  0.5051 -0.4199  0.7472  0.1013
                ( 49.70%)   0.7050* C   5 s( 25.67%)p 2.90( 74.33%)
                                            0.0000  0.5067  0.4056 -0.7603 -0.0248
    13. (1.99087) BD ( 1) C   4 - C   6  
                ( 50.03%)   0.7073* C   4 s( 25.23%)p 2.96( 74.77%)
                                            0.0000  0.5023  0.5858 -0.0956  0.6288
                ( 49.97%)   0.7069* C   6 s( 25.23%)p 2.96( 74.77%)
                                            0.0000  0.5023 -0.5854  0.1285 -0.6233
    14. (1.99086) BD ( 1) C   4 - H  17  
                ( 51.40%)   0.7170* C   4 s( 24.11%)p 3.15( 75.89%)
                                            0.0000  0.4910  0.4063  0.0009 -0.7706
                ( 48.60%)   0.6971* H  17 s(100.00%)
                                            1.0000
    15. (1.98893) BD ( 1) C   4 - H  18  
                ( 51.57%)   0.7181* C   4 s( 25.15%)p 2.98( 74.85%)
                                            0.0000  0.5015 -0.5617 -0.6577  0.0227
                ( 48.43%)   0.6959* H  18 s(100.00%)
                                            1.0000
    16. (1.98045) BD ( 1) C   5 - C   9  
                ( 49.69%)   0.7049* C   5 s( 25.04%)p 2.99( 74.96%)
                                            0.0001  0.5004 -0.7871 -0.0978  0.3472
                ( 50.31%)   0.7093* C   9 s( 25.41%)p 2.94( 74.59%)
                                            0.0001  0.5041  0.8135  0.0374 -0.2876
    17. (1.98383) BD ( 1) C   5 - H  19  
                ( 51.27%)   0.7160* C   5 s( 24.13%)p 3.14( 75.87%)
                                            0.0000  0.4912 -0.0834  0.3093 -0.8100
                ( 48.73%)   0.6981* H  19 s(100.00%)
                                            1.0000
    18. (1.98990) BD ( 1) C   6 - H  20  
                ( 51.54%)   0.7179* C   6 s( 25.13%)p 2.98( 74.87%)
                                            0.0000  0.5013  0.3812 -0.7686 -0.1124
                ( 48.46%)   0.6961* H  20 s(100.00%)
                                            1.0000
    19. (1.99092) BD ( 1) C   6 - H  21  
                ( 51.34%)   0.7166* C   6 s( 24.20%)p 3.13( 75.80%)
                                            0.0000  0.4919 -0.3994  0.0095  0.7736
                ( 48.66%)   0.6975* H  21 s(100.00%)
                                            1.0000
    20. (1.99027) BD ( 1) C   7 - H  22  
                ( 51.74%)   0.7193* C   7 s( 24.51%)p 3.08( 75.49%)
                                            0.0000  0.4951  0.1127  0.0660 -0.8590
                ( 48.26%)   0.6947* H  22 s(100.00%)
                                            1.0000
    21. (1.98966) BD ( 1) C   7 - H  23  
                ( 51.86%)   0.7201* C   7 s( 24.84%)p 3.03( 75.16%)
                                            0.0000  0.4984  0.4359  0.6378  0.3935
                ( 48.14%)   0.6938* H  23 s(100.00%)
                                            1.0000
    22. (1.98912) BD ( 1) O   8 - H  24  
                ( 59.45%)   0.7710* O   8 s( 16.72%)p 4.98( 83.28%)
                                            0.0000 -0.4089  0.8542 -0.0947 -0.3067
                ( 40.55%)   0.6368* H  24 s(100.00%)
                                           -1.0000
    23. (1.99026) BD ( 1) C   9 - C  10  
                ( 49.00%)   0.7000* C   9 s( 25.26%)p 2.96( 74.74%)
                                            0.0000  0.5025 -0.0237 -0.4107  0.7604
                ( 51.00%)   0.7142* C  10 s( 25.86%)p 2.87( 74.14%)
                                            0.0001  0.5085  0.0665  0.3888 -0.7654
    24. (1.98906) BD ( 1) C   9 - C  11  
                ( 49.12%)   0.7008* C   9 s( 24.96%)p 3.01( 75.04%)
                                            0.0000  0.4996 -0.4929 -0.4223 -0.5736
                ( 50.88%)   0.7133* C  11 s( 25.74%)p 2.89( 74.26%)
                                            0.0001  0.5073  0.5259  0.3886  0.5613
    25. (1.98256) BD ( 1) C   9 - H  25  
                ( 50.59%)   0.7112* C   9 s( 24.37%)p 3.10( 75.63%)
                                            0.0000  0.4937 -0.3076  0.8072  0.1001
                ( 49.41%)   0.7030* H  25 s(100.00%)
                                            1.0000
    26. (1.99499) BD ( 1) C  10 - H  26  
                ( 51.97%)   0.7209* C  10 s( 24.87%)p 3.02( 75.13%)
                                            0.0000  0.4987  0.2630 -0.8234 -0.0642
                ( 48.03%)   0.6930* H  26 s(100.00%)
                                            1.0000
    27. (1.99411) BD ( 1) C  10 - H  27  
                ( 51.78%)   0.7196* C  10 s( 24.78%)p 3.04( 75.22%)
                                            0.0000  0.4978  0.4915  0.4130  0.5832
                ( 48.22%)   0.6944* H  27 s(100.00%)
                                            1.0000
    28. (1.99425) BD ( 1) C  10 - H  28  
                ( 51.90%)   0.7204* C  10 s( 24.50%)p 3.08( 75.50%)
                                            0.0000  0.4949 -0.8276  0.0149  0.2645
                ( 48.10%)   0.6936* H  28 s(100.00%)
                                            1.0000
    29. (1.99489) BD ( 1) C  11 - H  29  
                ( 51.88%)   0.7203* C  11 s( 24.95%)p 3.01( 75.05%)
                                            0.0000  0.4995  0.2367 -0.8273 -0.1005
                ( 48.12%)   0.6937* H  29 s(100.00%)
                                            1.0000
    30. (1.99497) BD ( 1) C  11 - H  30  
                ( 51.86%)   0.7201* C  11 s( 24.70%)p 3.05( 75.30%)
                                            0.0000  0.4970  0.0399  0.4046 -0.7666
                ( 48.14%)   0.6938* H  30 s(100.00%)
                                            1.0000
    31. (1.99467) BD ( 1) C  11 - H  31  
                ( 51.83%)   0.7200* C  11 s( 24.61%)p 3.06( 75.39%)
                                            0.0000  0.4961 -0.8160  0.0302  0.2951
                ( 48.17%)   0.6940* H  31 s(100.00%)
                                            1.0000
    32. (1.99997) CR ( 1) C   1           s(100.00%)
                                            1.0000  0.0000  0.0001  0.0000  0.0000
    33. (1.99997) CR ( 1) C   2           s(100.00%)
                                            1.0000  0.0000  0.0001  0.0000  0.0000
    34. (1.99989) CR ( 1) C   3           s(100.00%)
                                            1.0000  0.0000  0.0000  0.0001  0.0000
    35. (1.99995) CR ( 1) C   4           s(100.00%)
                                            1.0000  0.0000  0.0000  0.0000  0.0000
    36. (1.99995) CR ( 1) C   5           s(100.00%)
                                            1.0000  0.0000  0.0000  0.0000 -0.0001
    37. (1.99996) CR ( 1) C   6           s(100.00%)
                                            1.0000  0.0000  0.0000 -0.0001  0.0000
    38. (1.99996) CR ( 1) C   7           s(100.00%)
                                            1.0000 -0.0001  0.0001  0.0001  0.0000
    39. (1.99999) CR ( 1) O   8           s(100.00%)
                                            1.0000  0.0000  0.0000  0.0000  0.0000
    40. (1.99996) CR ( 1) C   9           s(100.00%)
                                            1.0000  0.0000 -0.0001  0.0000  0.0000
    41. (1.99997) CR ( 1) C  10           s(100.00%)
                                            1.0000  0.0000  0.0000  0.0000  0.0001
    42. (1.99997) CR ( 1) C  11           s(100.00%)
                                            1.0000  0.0000 -0.0001  0.0000 -0.0001
    43. (1.99277) LP ( 1) O   8           s( 66.46%)p 0.50( 33.54%)
                                            0.0000  0.8152  0.2983  0.3406 -0.3612
    44. (1.97487) LP ( 2) O   8           s(  0.53%)p99.99( 99.47%)
                                            0.0000  0.0727  0.3786  0.3841  0.8389
    45. (0.00956) BD*( 1) C   1 - C   2  
                ( 49.16%)   0.7011* C   1 s( 25.72%)p 2.89( 74.28%)
                                           -0.0001 -0.5071  0.6939 -0.2230 -0.4600
                ( 50.84%)  -0.7130* C   2 s( 25.00%)p 3.00( 75.00%)
                                            0.0000 -0.5000 -0.6778  0.2297  0.4877
    46. (0.00513) BD*( 1) C   1 - H  12  
                ( 48.22%)   0.6944* C   1 s( 24.69%)p 3.05( 75.31%)
                                            0.0000 -0.4969 -0.3445  0.7274 -0.3245
                ( 51.78%)  -0.7196* H  12 s(100.00%)
                                           -1.0000
    47. (0.00597) BD*( 1) C   1 - H  13  
                ( 48.21%)   0.6943* C   1 s( 24.83%)p 3.03( 75.17%)
                                            0.0000 -0.4983  0.2268  0.1354  0.8258
                ( 51.79%)  -0.7197* H  13 s(100.00%)
                                           -1.0000
    48. (0.00504) BD*( 1) C   1 - H  14  
                ( 48.13%)   0.6938* C   1 s( 24.76%)p 3.04( 75.24%)
                                            0.0000 -0.4976 -0.5902 -0.6347 -0.0341
                ( 51.87%)  -0.7202* H  14 s(100.00%)
                                           -1.0000
    49. (0.01690) BD*( 1) C   2 - C   6  
                ( 50.37%)   0.7097* C   2 s( 25.27%)p 2.96( 74.73%)
                                            0.0000  0.5027 -0.6045 -0.6170 -0.0341
                ( 49.63%)  -0.7045* C   6 s( 25.44%)p 2.93( 74.56%)
                                            0.0001  0.5044  0.5937  0.6266 -0.0219
    50. (0.01471) BD*( 1) C   2 - C   7  
                ( 50.51%)   0.7107* C   2 s( 25.30%)p 2.95( 74.70%)
                                            0.0000  0.5030 -0.3267  0.7459 -0.2896
                ( 49.49%)  -0.7035* C   7 s( 25.63%)p 2.90( 74.37%)
                                            0.0001  0.5062  0.2938 -0.7640  0.2716
    51. (0.01005) BD*( 1) C   2 - H  15  
                ( 48.91%)   0.6994* C   2 s( 24.43%)p 3.09( 75.57%)
                                            0.0000 -0.4942 -0.2617 -0.1008 -0.8228
                ( 51.09%)  -0.7148* H  15 s(100.00%)
                                           -1.0000
    52. (0.03389) BD*( 1) C   3 - C   5  
                ( 50.08%)   0.7076* C   3 s( 25.74%)p 2.89( 74.26%)
                                            0.0001  0.5073 -0.4601 -0.5883 -0.4298
                ( 49.92%)  -0.7066* C   5 s( 25.16%)p 2.97( 74.84%)
                                            0.0000  0.5016  0.4571  0.5627  0.4720
    53. (0.02063) BD*( 1) C   3 - C   7  
                ( 50.01%)   0.7072* C   3 s( 26.21%)p 2.82( 73.79%)
                                            0.0000  0.5120  0.8345 -0.0721 -0.1904
                ( 49.99%)  -0.7070* C   7 s( 25.02%)p 3.00( 74.98%)
                                            0.0001  0.5002 -0.8432  0.0724  0.1832
    54. (0.02091) BD*( 1) C   3 - O   8  
                ( 58.92%)   0.7676* C   3 s( 22.36%)p 3.47( 77.64%)
                                           -0.0001  0.4728 -0.2762  0.8009 -0.2424
                ( 41.08%)  -0.6410* O   8 s( 16.29%)p 5.14( 83.71%)
                                            0.0000  0.4037  0.1947 -0.8529  0.2677
    55. (0.02361) BD*( 1) C   3 - H  16  
                ( 49.48%)   0.7034* C   3 s( 25.69%)p 2.89( 74.31%)
                                            0.0000 -0.5069  0.1247  0.0854 -0.8487
                ( 50.52%)  -0.7108* H  16 s(100.00%)
                                           -1.0000
    56. (0.01738) BD*( 1) C   4 - C   5  
                ( 49.70%)   0.7050* C   4 s( 25.51%)p 2.92( 74.49%)
                                           -0.0001 -0.5051  0.4199 -0.7472 -0.1013
                ( 50.30%)  -0.7092* C   5 s( 25.67%)p 2.90( 74.33%)
                                            0.0000 -0.5067 -0.4056  0.7603  0.0248
    57. (0.01123) BD*( 1) C   4 - C   6  
                ( 49.97%)   0.7069* C   4 s( 25.23%)p 2.96( 74.77%)
                                            0.0000 -0.5023 -0.5858  0.0956 -0.6288
                ( 50.03%)  -0.7073* C   6 s( 25.23%)p 2.96( 74.77%)
                                            0.0000 -0.5023  0.5854 -0.1285  0.6233
    58. (0.00808) BD*( 1) C   4 - H  17  
                ( 48.60%)   0.6971* C   4 s( 24.11%)p 3.15( 75.89%)
                                            0.0000 -0.4910 -0.4063 -0.0009  0.7706
                ( 51.40%)  -0.7170* H  17 s(100.00%)
                                           -1.0000
    59. (0.00990) BD*( 1) C   4 - H  18  
                ( 48.43%)   0.6959* C   4 s( 25.15%)p 2.98( 74.85%)
                                            0.0000 -0.5015  0.5617  0.6577 -0.0227
                ( 51.57%)  -0.7181* H  18 s(100.00%)
                                           -1.0000
    60. (0.02235) BD*( 1) C   5 - C   9  
                ( 50.31%)   0.7093* C   5 s( 25.04%)p 2.99( 74.96%)
                                            0.0001  0.5004 -0.7871 -0.0978  0.3472
                ( 49.69%)  -0.7049* C   9 s( 25.41%)p 2.94( 74.59%)
                                            0.0001  0.5041  0.8135  0.0374 -0.2876
    61. (0.01052) BD*( 1) C   5 - H  19  
                ( 48.73%)   0.6981* C   5 s( 24.13%)p 3.14( 75.87%)
                                            0.0000 -0.4912  0.0834 -0.3093  0.8100
                ( 51.27%)  -0.7160* H  19 s(100.00%)
                                           -1.0000
    62. (0.00874) BD*( 1) C   6 - H  20  
                ( 48.46%)   0.6961* C   6 s( 25.13%)p 2.98( 74.87%)
                                            0.0000 -0.5013 -0.3812  0.7686  0.1124
                ( 51.54%)  -0.7179* H  20 s(100.00%)
                                           -1.0000
    63. (0.00891) BD*( 1) C   6 - H  21  
                ( 48.66%)   0.6975* C   6 s( 24.20%)p 3.13( 75.80%)
                                            0.0000 -0.4919  0.3994 -0.0095 -0.7736
                ( 51.34%)  -0.7166* H  21 s(100.00%)
                                           -1.0000
    64. (0.01019) BD*( 1) C   7 - H  22  
                ( 48.26%)   0.6947* C   7 s( 24.51%)p 3.08( 75.49%)
                                            0.0000 -0.4951 -0.1127 -0.0660  0.8590
                ( 51.74%)  -0.7193* H  22 s(100.00%)
                                           -1.0000
    65. (0.00791) BD*( 1) C   7 - H  23  
                ( 48.14%)   0.6938* C   7 s( 24.84%)p 3.03( 75.16%)
                                            0.0000 -0.4984 -0.4359 -0.6378 -0.3935
                ( 51.86%)  -0.7201* H  23 s(100.00%)
                                           -1.0000
    66. (0.00835) BD*( 1) O   8 - H  24  
                ( 40.55%)   0.6368* O   8 s( 16.72%)p 4.98( 83.28%)
                                            0.0000  0.4089 -0.8542  0.0947  0.3067
                ( 59.45%)  -0.7710* H  24 s(100.00%)
                                            1.0000
    67. (0.01100) BD*( 1) C   9 - C  10  
                ( 51.00%)   0.7142* C   9 s( 25.26%)p 2.96( 74.74%)
                                            0.0000  0.5025 -0.0237 -0.4107  0.7604
                ( 49.00%)  -0.7000* C  10 s( 25.86%)p 2.87( 74.14%)
                                            0.0001  0.5085  0.0665  0.3888 -0.7654
    68. (0.01029) BD*( 1) C   9 - C  11  
                ( 50.88%)   0.7133* C   9 s( 24.96%)p 3.01( 75.04%)
                                            0.0000  0.4996 -0.4929 -0.4223 -0.5736
                ( 49.12%)  -0.7008* C  11 s( 25.74%)p 2.89( 74.26%)
                                            0.0001  0.5073  0.5259  0.3886  0.5613
    69. (0.01223) BD*( 1) C   9 - H  25  
                ( 49.41%)   0.7030* C   9 s( 24.37%)p 3.10( 75.63%)
                                            0.0000 -0.4937  0.3076 -0.8072 -0.1001
                ( 50.59%)  -0.7112* H  25 s(100.00%)
                                           -1.0000
    70. (0.00643) BD*( 1) C  10 - H  26  
                ( 48.03%)   0.6930* C  10 s( 24.87%)p 3.02( 75.13%)
                                            0.0000 -0.4987 -0.2630  0.8234  0.0642
                ( 51.97%)  -0.7209* H  26 s(100.00%)
                                           -1.0000
    71. (0.00631) BD*( 1) C  10 - H  27  
                ( 48.22%)   0.6944* C  10 s( 24.78%)p 3.04( 75.22%)
                                            0.0000 -0.4978 -0.4915 -0.4130 -0.5832
                ( 51.78%)  -0.7196* H  27 s(100.00%)
                                           -1.0000
    72. (0.00491) BD*( 1) C  10 - H  28  
                ( 48.10%)   0.6936* C  10 s( 24.50%)p 3.08( 75.50%)
[...]
 Sum      361.2784      -10.3560     371.6344       -15.5259     376.8043

 Contributions to Isotropic shielding for atom    9 (   214.6177 ppm):
                         Standard Origin              Atomic Origin
 NLMO      Total    Paramagnetic  Diamagnetic   Paramagnetic  Diamagnetic
   15      -0.1769       -0.5526       0.3757        -1.1083       0.9314
   16       5.6761       -9.4900      15.1661        -2.2437       7.9198
   17       0.4329        0.0378       0.3950        -0.5896       1.0225
   23      -0.4086       -6.7841       6.3755        -7.9186       7.5100
   24      -2.0021       -4.5252       2.5231        -9.5409       7.5388
   25       6.0599       -0.9953       7.0552        -4.6589      10.7189
   26       0.8369       -0.2904       1.1274        -0.1935       1.0305
   27       0.6199       -0.5484       1.1683        -0.3921       1.0121
   28       0.5959       -0.1757       0.7716        -0.4411       1.0370
   29       1.1095       -0.2669       1.3764         0.0930       1.0165
   30       0.7014       -0.6494       1.3508        -0.3330       1.0344
   31       0.6361       -0.3958       1.0319        -0.3976       1.0337
   40     199.9271       -0.0014     199.9285         0.0022     199.9249
 Sum      214.0080      -24.6374     238.6454       -27.7222     241.7302

 Contributions to Isotropic shielding for atom   10 (   224.6006 ppm):
                         Standard Origin              Atomic Origin
 NLMO      Total    Paramagnetic  Diamagnetic   Paramagnetic  Diamagnetic
   23       4.0095       -8.8959      12.9054        -3.9748       7.9843
   24      -0.3750        0.0024      -0.3774        -1.0530       0.6780
   25       0.3248       -0.1035       0.4284        -0.6770       1.0019
   26       6.7050       -4.3153      11.0203        -4.4765      11.1815
   27       7.0442       -5.3491      12.3932        -4.0458      11.0900
   28       5.9816        3.3051       2.6765        -5.1279      11.1095
   41     200.0741       -0.0022     200.0764         0.0015     200.0727
 Sum      223.7641      -15.3586     239.1227       -19.3537     243.1178

 Contributions to Isotropic shielding for atom   11 (   221.3456 ppm):
                         Standard Origin              Atomic Origin
 NLMO      Total    Paramagnetic  Diamagnetic   Paramagnetic  Diamagnetic
   17      -0.1929       -0.0644      -0.1285        -1.1013       0.9084
   23      -0.5256        0.0566      -0.5821        -1.2122       0.6867
   24       4.7032      -11.4781      16.1813        -3.2393       7.9425
   25       0.2866        0.1543       0.1323        -0.7500       1.0366
   29       6.3252       -4.1633      10.4886        -4.8418      11.1670
   30       5.3736       -3.6958       9.0694        -5.7474      11.1209
   31       4.8918        2.4675       2.4243        -6.2156      11.1074
   42     200.0747       -0.0040     200.0787         0.0024     200.0723
 Sum      220.9366      -16.7273     237.6638       -23.1052     244.0418

 Contributions to Isotropic shielding for atom   12 (    32.5330 ppm):
                         Standard Origin              Atomic Origin
 NLMO      Total    Paramagnetic  Diamagnetic   Paramagnetic  Diamagnetic
    1       1.4069       -0.3260       1.7329         0.4348       0.9722
    2      26.4119        0.1534      26.2585         0.4691      25.9428
    3       1.9702        1.1910       0.7793         0.1259       1.8443
    4       1.9044        2.4490      -0.5446         0.0571       1.8474
    5      -0.1348        0.5880      -0.7228        -1.0253       0.8904
 Sum       31.5587        4.0554      27.5033         0.0616      31.4971

 Contributions to Isotropic shielding for atom   13 (    32.5252 ppm):
                         Standard Origin              Atomic Origin
 NLMO      Total    Paramagnetic  Diamagnetic   Paramagnetic  Diamagnetic
    1       1.6902       -1.4563       3.1465         0.8086       0.8817
    2       1.9112        1.4858       0.4253         0.0914       1.8198
    3      26.3365        0.3471      25.9894         0.4079      25.9285
    4       1.9404        1.5286       0.4118         0.1173       1.8232
   20      -0.2231       -0.1100      -0.1131        -1.0089       0.7858
 Sum       31.6552        1.7953      29.8599         0.4163      31.2389

 Contributions to Isotropic shielding for atom   14 (    32.3574 ppm):
                         Standard Origin              Atomic Origin
 NLMO      Total    Paramagnetic  Diamagnetic   Paramagnetic  Diamagnetic
    1       1.4011       -0.3067       1.7078         0.4168       0.9843
    2       1.8197        2.3733      -0.5536        -0.0126       1.8323
    3       1.9939        1.2108       0.7831         0.1579       1.8360
    4      26.3360        0.1296      26.2064         0.4429      25.8931
    6      -0.1386        0.6517      -0.7903        -1.1107       0.9721
 Sum       31.4122        4.0586      27.3535        -0.1056      31.5178

 Contributions to Isotropic shielding for atom   15 (    32.3959 ppm):
                         Standard Origin              Atomic Origin
 NLMO      Total    Paramagnetic  Diamagnetic   Paramagnetic  Diamagnetic
    1       0.7721        2.4194      -1.6473        -0.2365       1.0087
    5       1.3565        0.5640       0.7926         0.3246       1.0319
    6       1.3842        0.7145       0.6697         0.4313       0.9529
    7      26.4851       -0.1858      26.6709         0.4266      26.0585
   19      -0.0751       -0.1339       0.0588        -1.2154       1.1403
   21      -0.0177       -0.1631       0.1455        -1.0985       1.0809
 Sum       29.9052        3.2151      26.6902        -1.3679      31.2732

 Contributions to Isotropic shielding for atom   16 (    32.1498 ppm):
                         Standard Origin              Atomic Origin
 NLMO      Total    Paramagnetic  Diamagnetic   Paramagnetic  Diamagnetic
    8       1.1721       -0.1097       1.2818         0.3687       0.8035
    9       0.8348        0.3186       0.5162        -0.2236       1.0585
   10       0.5833        0.9833      -0.3999        -0.9720       1.5553
   11      26.7213        0.3923      26.3291         0.6783      26.0430
   16      -0.0710       -0.1715       0.1005        -1.0153       0.9443
   22       0.2188       -0.9679       1.1867        -0.7734       0.9922
   23       0.0078       -0.6096       0.6174        -1.0167       1.0245
   27      -0.4103       -1.2515       0.8412        -0.8441       0.4338
 Sum       29.0569       -1.4161      30.4730        -3.7982      32.8552

 Contributions to Isotropic shielding for atom   17 (    32.4651 ppm):
                         Standard Origin              Atomic Origin
 NLMO      Total    Paramagnetic  Diamagnetic   Paramagnetic  Diamagnetic
    3      -0.2150       -1.2245       1.0096        -0.7670       0.5520
   12       1.3835        0.3817       1.0018         0.3304       1.0531
   13       1.0760        0.9360       0.1400         0.0662       1.0098
   14      26.4095        0.0099      26.3995         0.3941      26.0154
   15       2.0136        1.4477       0.5659         0.1856       1.8280
   17      -0.1444       -0.4164       0.2719        -1.2885       1.1440
 Sum       30.5232        1.1344      29.3887        -1.0791      31.6023

 Contributions to Isotropic shielding for atom   18 (    32.6465 ppm):
                         Standard Origin              Atomic Origin
 NLMO      Total    Paramagnetic  Diamagnetic   Paramagnetic  Diamagnetic
   12       1.2915        0.4537       0.8377         0.4015       0.8900
   13       1.1017        1.0723       0.0294         0.0825       1.0192
   14       2.1013        1.5029       0.5984         0.3145       1.7868
   15      26.3837        0.0543      26.3294         0.4477      25.9360
   16      -0.2025       -0.0794      -0.1231        -1.2091       1.0066
   26      -0.3015       -1.0870       0.7855        -0.8624       0.5609
   29      -0.3422       -1.6880       1.3458        -0.8873       0.5452
 Sum       30.0320        0.2288      29.8032        -1.7126      31.7446

 Contributions to Isotropic shielding for atom   19 (    32.2105 ppm):
                         Standard Origin              Atomic Origin
 NLMO      Total    Paramagnetic  Diamagnetic   Paramagnetic  Diamagnetic
    8       1.2460        0.8721       0.3739         0.2711       0.9749
   10      -0.0206       -0.5172       0.4966        -1.4714       1.4507
   12       1.1529        0.7238       0.4291         0.0133       1.1396
   14      -0.1136       -0.6702       0.5566        -1.2884       1.1747
   16       1.0243        1.3832      -0.3589        -0.1138       1.1381
   17      26.3213       -0.0499      26.3712         0.4479      25.8733
   24      -0.0431       -0.6036       0.5606        -1.0608       1.0178
   30      -0.1410       -1.6129       1.4718        -1.0415       0.9004
 Sum       29.4262       -0.4747      29.9009        -4.2435      33.6697

 Contributions to Isotropic shielding for atom   20 (    32.6851 ppm):
                         Standard Origin              Atomic Origin
 NLMO      Total    Paramagnetic  Diamagnetic   Paramagnetic  Diamagnetic
    1      -0.1629       -0.2836       0.1207        -1.2729       1.1101
    2      -0.0557       -1.4374       1.3817        -0.9873       0.9316
    5       1.0266        1.4263      -0.3998         0.1513       0.8752
   13       1.1959        0.7882       0.4077         0.2138       0.9821
   15       0.1957        0.0970       0.0986        -0.8090       1.0047
   18      26.4122       -0.0104      26.4227         0.4945      25.9177
   19       2.1442        1.3629       0.7813         0.3887       1.7555
 Sum       30.7560        1.9430      28.8130        -1.8209      32.5769

 Contributions to Isotropic shielding for atom   21 (    32.7336 ppm):
                         Standard Origin              Atomic Origin
 NLMO      Total    Paramagnetic  Diamagnetic   Paramagnetic  Diamagnetic
    5       1.2573        0.5019       0.7555         0.2710       0.9863
    7      -0.0241       -0.7767       0.7526        -1.1309       1.1068
   13       1.3774       -0.1145       1.4919         0.4136       0.9637
   18       1.9371        1.5626       0.3745         0.1235       1.8136
   19      26.4569        0.1664      26.2905         0.3824      26.0745
 Sum       31.0046        1.3396      29.6650         0.0596      30.9450

 Contributions to Isotropic shielding for atom   22 (    32.3868 ppm):
                         Standard Origin              Atomic Origin
 NLMO      Total    Paramagnetic  Diamagnetic   Paramagnetic  Diamagnetic
    1      -0.1202       -0.5182       0.3980        -1.2241       1.1039
    3      -0.0122       -1.1468       1.1346        -0.9609       0.9487
    6       1.2007        0.7080       0.4927         0.3863       0.8144
    9       1.3332        0.1381       1.1951         0.4956       0.8376
   10       0.0813       -0.1483       0.2296        -1.4200       1.5013
   20      26.2378        0.1434      26.0943         0.4381      25.7997
   21       1.9952        1.7951       0.2001         0.1189       1.8763
 Sum       30.7158        0.9713      29.7444        -2.1662      32.8819

 Contributions to Isotropic shielding for atom   23 (    31.8196 ppm):
                         Standard Origin              Atomic Origin
 NLMO      Total    Paramagnetic  Diamagnetic   Paramagnetic  Diamagnetic
    4      -0.0668       -1.1582       1.0914        -0.9134       0.8465
    6       1.0094        1.2137      -0.2043         0.0371       0.9723
    7       0.0354       -0.3192       0.3546        -1.0075       1.0429
    9       1.1871        0.7342       0.4530         0.3190       0.8682
   10       0.0231        0.0952      -0.0721        -1.5850       1.6081
   20       2.0061        1.5760       0.4302         0.1482       1.8580
   21      26.1841       -0.0164      26.2005         0.4411      25.7430
 Sum       30.3784        2.1252      28.2532        -2.5605      32.9389

 Contributions to Isotropic shielding for atom   24 (    34.4666 ppm):
                         Standard Origin              Atomic Origin
 NLMO      Total    Paramagnetic  Diamagnetic   Paramagnetic  Diamagnetic
   10       1.6262        1.3115       0.3147         0.9063       0.7199
   11       0.1272        0.2756      -0.1484        -0.9132       1.0404
   16      -0.0208        0.0298      -0.0505        -1.0722       1.0514
   22      22.9761       -0.4403      23.4164        -0.2357      23.2118
   25      -0.3901       -1.1937       0.8035        -0.6741       0.2839
   43       3.9338        1.3954       2.5385         1.9897       1.9442
   44       5.2070        2.1937       3.0133         2.0207       3.1863
 Sum       33.4594        3.5719      29.8875         2.0214      31.4380

 Contributions to Isotropic shielding for atom   25 (    32.9853 ppm):
                         Standard Origin              Atomic Origin
 NLMO      Total    Paramagnetic  Diamagnetic   Paramagnetic  Diamagnetic
    8      -0.1413        0.2002      -0.3415        -1.0930       0.9517
   10      -0.1145        0.0156      -0.1301        -1.2662       1.1517
   16       1.6527       -0.0758       1.7285         0.6282       1.0245
   22      -0.2698       -1.2689       0.9991        -0.5301       0.2603
   23       1.0270        1.3944      -0.3674         0.0009       1.0261
   24       0.8303        2.0848      -1.2544        -0.2118       1.0421
   25      26.7226       -0.0839      26.8064         0.4052      26.3174
 Sum       29.7069        2.2664      27.4405        -2.0668      31.7737

 Contributions to Isotropic shielding for atom   26 (    32.8064 ppm):
                         Standard Origin              Atomic Origin
 NLMO      Total    Paramagnetic  Diamagnetic   Paramagnetic  Diamagnetic
   12      -0.1090        0.0156      -0.1246        -1.0626       0.9536
   23       1.4514       -0.4144       1.8658         0.5144       0.9370
   26      26.2487        0.2548      25.9939         0.3849      25.8638
   27       2.1284        0.3287       1.7997         0.3099       1.8185
   28       1.9718        2.0305      -0.0587         0.1224       1.8493
 Sum       31.6912        2.2151      29.4760         0.2690      31.4222

 Contributions to Isotropic shielding for atom   27 (    32.7539 ppm):
                         Standard Origin              Atomic Origin
 NLMO      Total    Paramagnetic  Diamagnetic   Paramagnetic  Diamagnetic
   23       1.5040       -0.6994       2.2034         0.4887       1.0153
   26       2.1200        0.3775       1.7425         0.2764       1.8435
   27      26.3417        0.2947      26.0469         0.3622      25.9794
   28       1.9583        1.7921       0.1662         0.0940       1.8643
 Sum       31.9240        1.7649      30.1591         1.2214      30.7025

 Contributions to Isotropic shielding for atom   28 (    32.6722 ppm):
                         Standard Origin              Atomic Origin
 NLMO      Total    Paramagnetic  Diamagnetic   Paramagnetic  Diamagnetic
   23       1.1515        0.9571       0.1944         0.1230       1.0286
   24      -0.1389        0.5188      -0.6577        -1.1071       0.9682
   26       2.0094        1.6713       0.3381         0.1366       1.8727
   27       2.0582        1.4383       0.6199         0.1949       1.8633
   28      26.2900       -0.0293      26.3193         0.4011      25.8889
   31      -0.0905       -1.0305       0.9400        -0.9754       0.8850
 Sum       31.2797        3.5258      27.7540        -1.2270      32.5067

 Contributions to Isotropic shielding for atom   29 (    32.5268 ppm):
                         Standard Origin              Atomic Origin
 NLMO      Total    Paramagnetic  Diamagnetic   Paramagnetic  Diamagnetic
   12      -0.0853        0.2036      -0.2889        -1.1108       1.0255
   23      -0.1407        0.3314      -0.4722        -1.0188       0.8781
   24       1.5483       -1.0946       2.6429         0.6410       0.9073
   29      26.3019        0.2682      26.0337         0.4040      25.8979
   30       1.9939        0.8882       1.1058         0.1717       1.8223
   31       1.8788        2.0448      -0.1661         0.0326       1.8461
 Sum       31.4968        2.6417      28.8552        -0.8804      32.3773

 Contributions to Isotropic shielding for atom   30 (    32.5555 ppm):
                         Standard Origin              Atomic Origin
 NLMO      Total    Paramagnetic  Diamagnetic   Paramagnetic  Diamagnetic
   24       1.5706       -0.7809       2.3515         0.5664       1.0043
   29       2.0310        0.8640       1.1670         0.1863       1.8447
   30      26.3266        0.2613      26.0652         0.4270      25.8995
   31       1.8958        2.2586      -0.3627         0.0495       1.8463
 Sum       31.8241        2.6030      29.2210         1.2292      30.5949

 Contributions to Isotropic shielding for atom   31 (    32.4941 ppm):
                         Standard Origin              Atomic Origin
 NLMO      Total    Paramagnetic  Diamagnetic   Paramagnetic  Diamagnetic
   23      -0.1779        0.7434      -0.9213        -1.1256       0.9477
   24       1.2647        0.2664       0.9983         0.2498       1.0149
   29       1.9594        1.7320       0.2274         0.0931       1.8663
   30       1.9262        1.9575      -0.0313         0.0762       1.8499
   31      26.3558        0.0202      26.3356         0.4452      25.9106
 Sum       31.3281        4.7195      26.6086        -0.2612      31.5893
 
 1\1\GINC-COMPUTE-10-7\SP\RHF\STO-3G\C10H20O1\YTSAI.IQUIR\24-May-2020\0
 \\# rhf/STO-3G nmr pop=nbo\\comment\\0,1\C,0,2.954717439,0.620336241,-
 1.778453756\C,0,1.620861079,-0.102495831,-1.584330007\C,0,0.36500482,-
 1.376970303,0.211886885\C,0,0.164598343,1.175091269,0.073207031\C,0,-0
 .196406235,-0.095981146,0.877215771\C,0,0.462516897,0.891295001,-1.397
 233162\C,0,1.724656296,-1.106837781,-0.427735288\O,0,0.539212456,-2.39
 8665043,1.191977738\C,0,-1.713897874,-0.226975775,1.21287525\C,0,-2.63
 0601412,-0.191646291,-0.013085043\C,0,-2.161476139,0.841265933,2.21939
 4641\H,0,2.917098031,1.276508076,-2.654443952\H,0,3.207130522,1.233946
 339,-0.907169021\H,0,3.7660408,-0.098495072,-1.934961273\H,0,1.4215462
 52,-0.662010118,-2.508147326\H,0,-0.313160115,-1.769751934,-0.55277290
 1\H,0,1.058535304,1.626999373,0.523472395\H,0,-0.616850829,1.937493185
 ,0.145307269\H,0,0.307781056,-0.000376139,1.850961916\H,0,0.669386975,
 1.830861493,-1.923145896\H,0,-0.43826949,0.476202552,-1.866233746\H,0,
 2.416880887,-0.745812227,0.345463273\H,0,2.16636403,-2.044403929,-0.78
 9178999\H,0,-0.341131345,-2.667052588,1.502935948\H,0,-1.869962209,-1.
 194734283,1.70574117\H,0,-2.588781659,0.774136236,-0.526054575\H,0,-2.
 373244332,-0.973067172,-0.733150595\H,0,-3.671789654,-0.357747887,0.28
 5532145\H,0,-2.116407665,1.849986894,1.798361109\H,0,-1.53510394,0.817
 766689,3.117279619\H,0,-3.195246633,0.66113469,2.534481726\\Version=EM
 64L-G09RevC.01\State=1-A\HF=-459.6115504\RMSD=8.582e-09\Dipole=-0.4682
 489,0.2508953,-0.1712277\Quadrupole=0.4442511,-0.7450142,0.3007631,2.4
 995201,-1.3929203,0.8028881\PG=C01 [X(C10H20O1)]\\@


 SATCHEL PAIGE'S GUIDE TO LONGEVITY

    1.  AVOID FRIED MEATS, WHICH ANGRY UP THE BLOOD.

    2.  IF YOUR STOMACH DISPUTES YOU, LIE DOWN AND PACIFY IT WITH COOL
        THOUGHTS.

    3.  KEEP THE JUICES FLOWING BY JANGLING AROUND GENTLY AS YOU MOVE.

    4.  GO VERY LIGHT ON THE VICES, SUCH AS CARRYING ON IN SOCIETY.
        THE SOCIAL RUMBLE AIN'T RESTFUL.

    5.  AVOID RUNNING AT ALL TIMES.

    6.  DON'T LOOK BACK.  SOMETHING MAY BE GAINING ON YOU.
 Job cpu time:  0 days  0 hours  0 minutes 38.5 seconds.
 File lengths (MBytes):  RWF=      5 Int=      0 D2E=      0 Chk=      1 Scr=      1
 Normal termination of Gaussian 09 at Sun May 24 02:05:28 2020.
