 Entering Gaussian System, Link 0=g09
 Input=/home/ytsai.iquir/menthol/01_menthol_M0083_MMFF_NMR_rhf_STO-3G_nbo.gjc
 Output=/home/ytsai.iquir/menthol/01_menthol_M0083_MMFF_NMR_rhf_STO-3G_nbo.log
 Initial command:
 /share/apps/Gaussian09/EM64T.SSE4.2-enabled/g09/l1.exe /tmp/Gau-31070.inp -scrdir=/tmp/
 Entering Link 1 = /share/apps/Gaussian09/EM64T.SSE4.2-enabled/g09/l1.exe PID=     31071.
  
 Copyright (c) 1988,1990,1992,1993,1995,1998,2003,2009,2011,
            Gaussian, Inc.  All Rights Reserved.
  
 This is part of the Gaussian(R) 09 program.  It is based on
 the Gaussian(R) 03 system (copyright 2003, Gaussian, Inc.),
 the Gaussian(R) 98 system (copyright 1998, Gaussian, Inc.),
 the Gaussian(R) 94 system (copyright 1995, Gaussian, Inc.),
 the Gaussian 92(TM) system (copyright 1992, Gaussian, Inc.),
 the Gaussian 90(TM) system (copyright 1990, Gaussian, Inc.),
 the Gaussian 88(TM) system (copyright 1988, Gaussian, Inc.),
 the Gaussian 86(TM) system (copyright 1986, Carnegie Mellon
 University), and the Gaussian 82(TM) system (copyright 1983,
 Carnegie Mellon University). Gaussian is a federally registered
 trademark of Gaussian, Inc.
  
 This software contains proprietary and confidential information,
 including trade secrets, belonging to Gaussian, Inc.
  
 This software is provided under written license and may be
 used, copied, transmitted, or stored only in accord with that
 written license.
  
 The following legend is applicable only to US Government
 contracts under FAR:
  
                    RESTRICTED RIGHTS LEGEND
  
 Use, reproduction and disclosure by the US Government is
 subject to restrictions as set forth in subparagraphs (a)
 and (c) of the Commercial Computer Software - Restricted
 Rights clause in FAR 52.227-19.
  
 Gaussian, Inc.
 340 Quinnipiac St., Bldg. 40, Wallingford CT 06492
  
  
 ---------------------------------------------------------------
 Warning -- This program may not be used in any manner that
 competes with the business of Gaussian, Inc. or will provide
 assistance to any competitor of Gaussian, Inc.  The licensee
 of this program is prohibited from giving any competitor of
 Gaussian, Inc. access to this program.  By using this program,
 the user acknowledges that Gaussian, Inc. is engaged in the
 business of creating and licensing software in the field of
 computational chemistry and represents and warrants to the
 licensee that it is not a competitor of Gaussian, Inc. and that
 it will not use this program in any manner prohibited above.
 ---------------------------------------------------------------
  

 Cite this work as:
 Gaussian 09, Revision C.01,
 M. J. Frisch, G. W. Trucks, H. B. Schlegel, G. E. Scuseria, 
 M. A. Robb, J. R. Cheeseman, G. Scalmani, V. Barone, B. Mennucci, 
 G. A. Petersson, H. Nakatsuji, M. Caricato, X. Li, H. P. Hratchian, 
 A. F. Izmaylov, J. Bloino, G. Zheng, J. L. Sonnenberg, M. Hada, 
 M. Ehara, K. Toyota, R. Fukuda, J. Hasegawa, M. Ishida, T. Nakajima, 
 Y. Honda, O. Kitao, H. Nakai, T. Vreven, J. A. Montgomery, Jr., 
 J. E. Peralta, F. Ogliaro, M. Bearpark, J. J. Heyd, E. Brothers, 
 K. N. Kudin, V. N. Staroverov, T. Keith, R. Kobayashi, J. Normand, 
 K. Raghavachari, A. Rendell, J. C. Burant, S. S. Iyengar, J. Tomasi, 
 M. Cossi, N. Rega, J. M. Millam, M. Klene, J. E. Knox, J. B. Cross, 
 V. Bakken, C. Adamo, J. Jaramillo, R. Gomperts, R. E. Stratmann, 
 O. Yazyev, A. J. Austin, R. Cammi, C. Pomelli, J. W. Ochterski, 
 R. L. Martin, K. Morokuma, V. G. Zakrzewski, G. A. Voth, 
 P. Salvador, J. J. Dannenberg, S. Dapprich, A. D. Daniels, 
 O. Farkas, J. B. Foresman, J. V. Ortiz, J. Cioslowski, 
 and D. J. Fox, Gaussian, Inc., Wallingford CT, 2010.
 
 ******************************************
 Gaussian 09:  EM64L-G09RevC.01 23-Sep-2011
                 3-Aug-2021 
 ******************************************
 %nprocshared=4
 Will use up to    4 processors via shared memory.
 ------------------------
 # rhf/STO-3G nmr pop=nbo
 ------------------------
 1/38=1/1;
 2/12=2,17=6,18=5,40=1/2;
 3/6=3,11=1,16=1,25=1,30=1,116=1/1,2,8,3;
 4//1;
 5/5=2,38=5/2;
 8/6=1,10=90,11=11/1;
 10/13=100,45=16/2;
 6/7=2,8=2,9=2,10=2,28=1,64=1/1,7;
 99/9=1/99;
 -------
 comment
 -------
 Charge =  0 Multiplicity = 1
 Symbolic Z-Matrix:
 6                     1.95672   0.49009  -2.78903 
 6                     1.05179   0.1814   -1.59805 
 6                     0.74014  -1.24958   0.46673 
 6                     0.55786   1.26328   0.67122 
 6                    -0.09335  -0.07745   1.05938 
 6                     0.68143   1.46678  -0.84017 
 6                     1.69734  -0.83848  -0.66065 
 8                     1.53232  -1.84089   1.49846 
 6                    -1.60115  -0.18092   0.66479 
 6                    -2.4097    1.06316   1.05469 
 6                    -2.264    -1.40108   1.32526 
 1                     2.91257   0.91443  -2.46347 
 1                     2.16876  -0.41927  -3.36118 
 1                     1.47788   1.20722  -3.46408 
 1                     0.12951  -0.26069  -1.99764 
 1                     0.09219  -2.04122   0.07883 
 1                     1.56534   1.29417   1.10915 
 1                     0.03263   2.11289   1.12025 
 1                    -0.04971  -0.13323   2.15651 
 1                     1.42447   2.25431  -1.01797 
 1                    -0.26386   1.85126  -1.24248 
 1                     2.63081  -0.43733  -0.24282 
 1                     1.99503  -1.7375   -1.21583 
 1                     0.92198  -2.18239   2.1742 
 1                    -1.68453  -0.30301  -0.42189 
 1                    -2.28876   1.29735   2.1177 
 1                    -2.10821   1.93767   0.47089 
 1                    -3.47765   0.91092   0.86259 
 1                    -2.20534  -1.33752   2.41736 
 1                    -1.7999   -2.34163   1.01777 
 1                    -3.32263  -1.46276   1.04948 
 
                          Input orientation:                          
 ---------------------------------------------------------------------
 Center     Atomic      Atomic             Coordinates (Angstroms)
 Number     Number       Type             X           Y           Z
 ---------------------------------------------------------------------
      1          6           0        1.956725    0.490086   -2.789030
      2          6           0        1.051787    0.181399   -1.598054
      3          6           0        0.740142   -1.249576    0.466729
      4          6           0        0.557863    1.263284    0.671215
      5          6           0       -0.093348   -0.077452    1.059379
      6          6           0        0.681434    1.466775   -0.840175
      7          6           0        1.697342   -0.838482   -0.660654
      8          8           0        1.532317   -1.840887    1.498457
      9          6           0       -1.601148   -0.180915    0.664789
     10          6           0       -2.409700    1.063158    1.054690
     11          6           0       -2.263995   -1.401075    1.325258
     12          1           0        2.912573    0.914432   -2.463468
     13          1           0        2.168756   -0.419270   -3.361178
     14          1           0        1.477883    1.207222   -3.464075
     15          1           0        0.129507   -0.260688   -1.997635
     16          1           0        0.092186   -2.041218    0.078830
     17          1           0        1.565344    1.294172    1.109148
     18          1           0        0.032632    2.112889    1.120246
     19          1           0       -0.049714   -0.133227    2.156510
     20          1           0        1.424467    2.254309   -1.017969
     21          1           0       -0.263862    1.851265   -1.242481
     22          1           0        2.630814   -0.437329   -0.242821
     23          1           0        1.995028   -1.737502   -1.215826
     24          1           0        0.921985   -2.182388    2.174201
     25          1           0       -1.684525   -0.303009   -0.421888
     26          1           0       -2.288764    1.297347    2.117704
     27          1           0       -2.108215    1.937666    0.470892
     28          1           0       -3.477646    0.910920    0.862594
     29          1           0       -2.205341   -1.337519    2.417358
     30          1           0       -1.799903   -2.341627    1.017772
     31          1           0       -3.322627   -1.462760    1.049482
 ---------------------------------------------------------------------
                    Distance matrix (angstroms):
                    1          2          3          4          5
     1  C    0.000000
     2  C    1.527293   0.000000
     3  C    3.886704   2.531431   0.000000
     4  C    3.811555   2.562034   2.527747   0.000000
     5  C    4.397176   2.905218   1.555575   1.540234   0.000000
     6  C    2.525535   1.537444   3.014964   1.530025   2.567728
     7  C    2.522371   1.528273   1.535000   2.736733   2.596970
     8  O    4.898582   3.729468   1.428864   3.357048   2.438294
     9  C    5.003755   3.505680   2.581260   2.597515   1.562008
    10  C    5.845362   4.449319   3.951701   2.998922   2.581957
    11  C    6.190181   4.695146   3.128077   3.935666   2.556244
    12  H    1.095311   2.179174   4.241278   3.936063   4.736016
    13  H    1.095098   2.171872   4.169319   4.656840   4.977478
    14  H    1.095106   2.171613   4.693755   4.236768   4.957902
    15  H    2.128072   1.098047   2.724677   3.103022   3.070599
    16  H    4.255424   2.944962   1.094080   3.389323   2.202788
    17  H    3.999441   2.971692   2.750330   1.098980   2.152925
    18  H    4.649523   3.486902   3.497688   1.095137   2.194805
    19  H    5.373331   3.925437   2.173814   2.127321   1.099414
    20  H    2.555864   2.184569   3.866502   2.141606   3.472211
    21  H    3.029130   2.155415   3.680304   2.164067   3.007921
    22  H    2.792432   2.170901   2.176660   2.832786   3.040773
    23  H    2.727377   2.172092   2.154949   3.825060   3.506229
    24  H    5.731185   4.453566   1.954141   3.776799   2.589302
    25  H    4.414869   3.017520   2.750389   2.945582   2.185606
    26  H    6.538493   5.119715   4.287984   3.193239   2.798209
    27  H    5.407987   4.165408   4.274537   2.757334   2.909761
    28  H    6.560781   5.206030   4.755437   4.055381   3.531158
    29  H    6.911542   5.388834   3.533915   4.177139   2.809340
    30  H    6.051661   4.619561   2.819229   4.321406   2.835586
    31  H    6.813174   5.371053   4.109884   4.757374   3.513890
                    6          7          8          9         10
     6  C    0.000000
     7  C    2.525571   0.000000
     8  O    4.139303   2.386171   0.000000
     9  C    3.192174   3.615139   3.642679   0.000000
    10  C    3.648085   4.840086   4.916290   1.534111   0.000000
    11  C    4.646420   4.466829   3.825627   1.537653   2.483321
    12  H    2.813920   2.792781   5.019336   5.599951   6.381703
    13  H    3.482062   2.773229   5.103146   5.520634   6.531443
    14  H    2.754370   3.477389   5.824144   5.334311   5.962658
    15  H    2.151388   2.139970   4.085042   3.176481   4.185311
    16  H    3.673935   2.137742   2.032105   2.582915   4.104739
    17  H    2.147312   2.774498   3.159311   3.521364   3.982123
    18  H    2.163714   3.827983   4.245520   2.852756   2.659176
    19  H    3.474868   3.389101   2.419083   2.152778   2.866161
    20  H    1.097232   3.125298   4.807771   4.232769   4.518361
    21  H    1.096935   3.379287   4.936698   3.091240   3.240791
    22  H    2.789719   1.098580   2.491730   4.335782   5.416805
    23  H    3.483395   1.097757   2.755381   4.346511   5.692150
    24  H    4.739274   3.231667   0.972502   3.556743   4.784036
    25  H    2.984101   3.432312   4.049798   1.096688   2.138357
    26  H    4.195215   5.307550   4.983236   2.183813   1.095203
    27  H    3.118136   4.844550   5.346665   2.187030   1.093836
    28  H    4.528392   5.671084   5.751217   2.180017   1.095713
    29  H    5.177746   4.995411   3.881732   2.185013   2.768010
    30  H    4.910491   4.160203   3.403747   2.198357   3.459158
    31  H    5.309000   5.339886   4.890301   2.180506   2.685839
                   11         12         13         14         15
    11  C    0.000000
    12  H    6.820035   0.000000
    13  H    6.525023   1.771414   0.000000
    14  H    6.613818   1.773492   1.770132   0.000000
    15  H    4.250995   3.056691   2.458238   2.474535   0.000000
    16  H    2.741342   4.811832   4.333188   5.002469   2.735578
    17  H    4.687739   3.837032   4.825330   4.574886   3.759165
    18  H    4.202912   4.751144   5.572973   4.891318   3.919750
    19  H    2.683554   5.587212   5.953849   5.976733   4.159963
    20  H    5.697131   2.469655   3.632165   2.661331   2.993640
    21  H    4.601254   3.529618   3.944850   2.895505   2.277135
    22  H    5.229421   2.614941   3.152455   3.796086   3.060574
    23  H    4.970873   3.071034   2.523976   3.740783   2.504471
    24  H    3.388454   5.921209   5.941671   6.602169   4.661027
    25  H    2.143374   5.175280   4.847755   4.640747   2.403224
    26  H    2.812484   6.941733   7.268729   6.734390   5.021108
    27  H    3.449841   5.904726   6.207447   5.373790   3.991716
    28  H    2.651854   7.203998   7.175759   6.585220   4.750277
    29  H    1.095519   7.422047   7.305299   7.391421   5.109134
    30  H    1.092962   6.702864   6.214573   6.589777   4.140726
    31  H    1.095700   7.541192   7.120259   7.109564   4.758901
                   16         17         18         19         20
    16  H    0.000000
    17  H    3.789007   0.000000
    18  H    4.283071   1.737707   0.000000
    19  H    2.824415   2.396424   2.475007   0.000000
    20  H    4.629200   2.338020   2.555224   4.236845   0.000000
    21  H    4.126022   3.030926   2.395587   3.941727   1.750231
    22  H    3.020026   2.441546   3.887431   3.610333   3.049761
    23  H    2.321463   3.844630   4.912611   4.257620   4.037232
    24  H    2.258113   3.692522   4.511228   2.267945   5.488781
    25  H    2.535506   3.931502   3.341163   3.057706   4.069523
    26  H    4.579514   3.983885   2.654978   2.657328   4.953413
    27  H    4.563660   3.783714   2.244012   3.371548   3.846663
    28  H    4.698202   5.063538   3.719296   3.809879   5.419587
    29  H    3.352989   4.780719   4.312347   2.482959   6.154527
    30  H    2.133508   4.955025   4.817820   3.039229   5.971887
    31  H    3.596905   5.612174   4.903880   3.702044   6.373842
                   21         22         23         24         25
    21  H    0.000000
    22  H    3.823105   0.000000
    23  H    4.240583   1.743964   0.000000
    24  H    5.417593   3.436179   3.583522   0.000000
    25  H    2.707869   4.321141   4.028303   4.131057   0.000000
    26  H    3.962057   5.725682   6.218811   4.735046   3.061988
    27  H    2.518879   5.348681   5.760945   5.390568   2.448917
    28  H    3.955249   6.352401   6.425273   5.535848   2.517697
    29  H    5.228012   5.592432   5.568044   3.248552   3.066395
    30  H    5.004848   4.984647   4.444709   2.961648   2.498378
    31  H    5.058844   6.177785   5.786585   4.449673   2.488640
                   26         27         28         29         30
    26  H    0.000000
    27  H    1.776118   0.000000
    28  H    1.771459   1.755841   0.000000
    29  H    2.653163   3.811168   3.015217   0.000000
    30  H    3.832880   4.325099   3.663053   1.769591   0.000000
    31  H    3.134991   3.656838   2.386067   1.770621   1.758437
                   31
    31  H    0.000000
 Stoichiometry    C10H20O
 Framework group  C1[X(C10H20O)]
 Deg. of freedom    87
 Full point group                 C1      NOp   1
 Largest Abelian subgroup         C1      NOp   1
 Largest concise Abelian subgroup C1      NOp   1
                         Standard orientation:                         
 ---------------------------------------------------------------------
 Center     Atomic      Atomic             Coordinates (Angstroms)
 Number     Number       Type             X           Y           Z
 ---------------------------------------------------------------------
      1          6           0       -3.292916   -0.712670   -0.741797
      2          6           0       -1.804572   -0.435134   -0.540725
      3          6           0       -0.056957    1.342729   -0.101191
      4          6           0       -0.118929   -0.712848    1.368595
      5          6           0        0.798845    0.227702    0.565241
      6          6           0       -1.207972   -1.373533    0.520977
      7          6           0       -1.557541    1.028453   -0.176712
      8          8           0        0.083239    2.557487    0.637971
      9          6           0        1.699667   -0.511287   -0.475087
     10          6           0        2.397175   -1.747565    0.106805
     11          6           0        2.784912    0.424942   -1.031949
     12          1           0       -3.862874   -0.509103    0.171117
     13          1           0       -3.700256   -0.084418   -1.540930
     14          1           0       -3.457973   -1.758824   -1.020322
     15          1           0       -1.305106   -0.636074   -1.497732
     16          1           0        0.288593    1.554560   -1.117426
     17          1           0       -0.604091   -0.124421    2.159878
     18          1           0        0.454189   -1.478411    1.902237
     19          1           0        1.476463    0.692465    1.295679
     20          1           0       -1.987487   -1.745224    1.197823
     21          1           0       -0.801689   -2.259476    0.017682
     22          1           0       -2.048380    1.274447    0.774835
     23          1           0       -2.020129    1.693071   -0.917905
     24          1           0        1.022869    2.806867    0.612210
     25          1           0        1.082223   -0.845196   -1.317698
     26          1           0        2.956290   -1.496701    1.014509
     27          1           0        1.679837   -2.537037    0.348954
     28          1           0        3.101620   -2.174798   -0.615563
     29          1           0        3.432234    0.797391   -0.230439
     30          1           0        2.360732    1.288628   -1.550295
     31          1           0        3.416752   -0.102373   -1.755327
 ---------------------------------------------------------------------
 Rotational constants (GHZ):      1.4193911      0.8110380      0.6345587
 Standard basis: STO-3G (5D, 7F)
 There are    75 symmetry adapted basis functions of A   symmetry.
 Integral buffers will be    131072 words long.
 Raffenetti 1 integral format.
 Two-electron integral symmetry is turned on.
    75 basis functions,   225 primitive gaussians,    75 cartesian basis functions
    44 alpha electrons       44 beta electrons
       nuclear repulsion energy       694.7344278654 Hartrees.
 NAtoms=   31 NActive=   31 NUniq=   31 SFac= 1.00D+00 NAtFMM=   60 NAOKFM=F Big=F
 One-electron integrals computed using PRISM.
 NBasis=    75 RedAO= T  NBF=    75
 NBsUse=    75 1.00D-06 NBFU=    75
 Harris functional with IExCor=  205 diagonalized for initial guess.
 ExpMin= 1.69D-01 ExpMax= 1.31D+02 ExpMxC= 1.31D+02 IAcc=1 IRadAn=         1 AccDes= 0.00D+00
 HarFok:  IExCor=  205 AccDes= 0.00D+00 IRadAn=         1 IDoV= 1
 ScaDFX=  1.000000  1.000000  1.000000  1.000000
 FoFCou: FMM=F IPFlag=           0 FMFlag=      100000 FMFlg1=           0
         NFxFlg=           0 DoJE=T BraDBF=F KetDBF=T FulRan=T
         Omega=  0.000000  0.000000  1.000000  0.000000  0.000000 ICntrl=     500 IOpCl=  0
         NMat0=    1 NMatS0=    1 NMatT0=    0 NMatD0=    1 NMtDS0=    0 NMtDT0=    0
         I1Cent=           4 NGrid=           0.
 Petite list used in FoFCou.
 Initial guess orbital symmetries:
       Occupied  (A) (A) (A) (A) (A) (A) (A) (A) (A) (A) (A) (A)
                 (A) (A) (A) (A) (A) (A) (A) (A) (A) (A) (A) (A)
                 (A) (A) (A) (A) (A) (A) (A) (A) (A) (A) (A) (A)
                 (A) (A) (A) (A) (A) (A) (A) (A)
       Virtual   (A) (A) (A) (A) (A) (A) (A) (A) (A) (A) (A) (A)
                 (A) (A) (A) (A) (A) (A) (A) (A) (A) (A) (A) (A)
                 (A) (A) (A) (A) (A) (A) (A)
 The electronic state of the initial guess is 1-A.
 Requested convergence on RMS density matrix=1.00D-08 within 128 cycles.
 Requested convergence on MAX density matrix=1.00D-06.
 Requested convergence on             energy=1.00D-06.
 No special actions if energy rises.
 Keep R1 ints in memory in canonical form, NReq=4898789.
 SCF Done:  E(RHF) =  -459.611019606     A.U. after   10 cycles
             Convg  =    0.7130D-08             -V/T =  2.0089
 Range of M.O.s used for correlation:     1    75
 NBasis=    75 NAE=    44 NBE=    44 NFC=     0 NFV=     0
 NROrb=     75 NOA=    44 NOB=    44 NVA=    31 NVB=    31
          Differentiating once with respect to magnetic field using GIAOs.
          Electric field/nuclear overlap derivatives assumed to be zero.
          Keep R3 ints in memory in canonical form, NReq=4863575.
 FoFCou: FMM=F IPFlag=           0 FMFlag=           0 FMFlg1=           0
         NFxFlg=           0 DoJE=F BraDBF=F KetDBF=T FulRan=T
         Omega=  0.000000  0.000000  1.000000  0.000000  0.000000 ICntrl=    6100 IOpCl=  0
         NMat0=    1 NMatS0=    1 NMatT0=    0 NMatD0=    1 NMtDS0=    0 NMtDT0=    0
         I1Cent=           7 NGrid=          31.
 Symmetry not used in FoFCou.
          There are     3 degrees of freedom in the 1st order CPHF.  IDoFFX=0.
      3 vectors produced by pass  0 Test12= 4.55D-14 3.33D-08 XBig12= 6.93D+00 3.58D-01.
 AX will form     3 AO Fock derivatives at one time.
      3 vectors produced by pass  1 Test12= 4.55D-14 3.33D-08 XBig12= 1.05D-02 1.34D-02.
      3 vectors produced by pass  2 Test12= 4.55D-14 3.33D-08 XBig12= 1.15D-04 2.42D-03.
      3 vectors produced by pass  3 Test12= 4.55D-14 3.33D-08 XBig12= 1.84D-06 3.03D-04.
      3 vectors produced by pass  4 Test12= 4.55D-14 3.33D-08 XBig12= 1.69D-08 1.72D-05.
      3 vectors produced by pass  5 Test12= 4.55D-14 3.33D-08 XBig12= 2.44D-10 3.02D-06.
      3 vectors produced by pass  6 Test12= 4.55D-14 3.33D-08 XBig12= 3.10D-12 3.62D-07.
 Inverted reduced A of dimension    21 with in-core refinement.
 Calculating GIAO nuclear magnetic shielding tensors.
 SCF GIAO Magnetic shielding tensor (ppm):
      1  C    Isotropic =   220.9053   Anisotropy =    27.9883
   XX=   236.8806   YX=     5.6001   ZX=     8.0346
   XY=     5.0862   YY=   211.4394   ZY=    -0.3012
   XZ=     5.5085   YZ=    -2.8890   ZZ=   214.3959
   Eigenvalues:   208.5058   214.6459   239.5642
      2  C    Isotropic =   217.4804   Anisotropy =     8.6687
   XX=   220.5329   YX=     0.9224   ZX=     5.3030
   XY=    -0.9319   YY=   219.2973   ZY=    -0.7099
   XZ=     5.2059   YZ=    -2.1499   ZZ=   212.6109
   Eigenvalues:   209.8189   219.3626   223.2595
      3  C    Isotropic =   186.6824   Anisotropy =    36.6150
   XX=   179.1783   YX=     0.6304   ZX=     2.8542
   XY=     0.8770   YY=   203.4782   ZY=    13.8436
   XZ=     6.4290   YZ=    17.6158   ZZ=   177.3908
   Eigenvalues:   168.5595   180.3954   211.0925
      4  C    Isotropic =   219.1867   Anisotropy =    14.0474
   XX=   224.2419   YX=     6.0364   ZX=    -0.0136
   XY=     7.7085   YY=   216.4829   ZY=    -5.0065
   XZ=    -0.0532   YZ=    -2.0981   ZZ=   216.8352
   Eigenvalues:   210.8612   218.1472   228.5516
      5  C    Isotropic =   206.4435   Anisotropy =    14.0542
   XX=   208.0314   YX=    -4.5666   ZX=     1.9651
   XY=    -6.8202   YY=   211.1661   ZY=     4.2893
   XZ=     2.2649   YZ=     4.1987   ZZ=   200.1331
   Eigenvalues:   197.1348   206.3828   215.8130
      6  C    Isotropic =   217.9337   Anisotropy =    19.4817
   XX=   222.3868   YX=     1.5454   ZX=     9.5815
   XY=     0.7119   YY=   215.3507   ZY=    -9.7881
   XZ=     9.6623   YZ=    -8.4853   ZZ=   216.0635
   Eigenvalues:   203.3267   219.5528   230.9215
      7  C    Isotropic =   216.2864   Anisotropy =    20.1015
   XX=   222.5385   YX=     5.9382   ZX=     3.0155
   XY=     7.6320   YY=   219.9040   ZY=     4.7538
   XZ=     5.0677   YZ=     4.3281   ZZ=   206.4168
   Eigenvalues:   204.7804   214.3915   229.6875
      8  O    Isotropic =   346.9431   Anisotropy =    83.7182
   XX=   400.2885   YX=    19.7903   ZX=    20.8139
   XY=    -0.1569   YY=   334.8561   ZY=    -8.1274
   XZ=     0.3328   YZ=     1.2315   ZZ=   305.6847
   Eigenvalues:   303.8436   334.2305   402.7553
      9  C    Isotropic =   213.0288   Anisotropy =    15.8994
   XX=   214.7536   YX=    -7.7057   ZX=    -5.9416
   XY=    -6.3425   YY=   213.3628   ZY=    -0.4017
   XZ=    -8.9842   YZ=    -0.4501   ZZ=   210.9699
   Eigenvalues:   202.7677   212.6902   223.6283
     10  C    Isotropic =   221.7025   Anisotropy =    24.1550
   XX=   219.4583   YX=   -11.3343   ZX=     1.4067
   XY=    -8.6455   YY=   229.0261   ZY=    -7.2902
   XZ=    -0.1941   YZ=    -8.8654   ZZ=   216.6230
   Eigenvalues:   210.0226   217.2790   237.8058
     11  C    Isotropic =   221.5232   Anisotropy =    26.6562
   XX=   225.7697   YX=    11.3729   ZX=   -10.2337
   XY=     9.3763   YY=   222.4136   ZY=    -5.7653
   XZ=    -9.4757   YZ=    -2.8062   ZZ=   216.3863
   Eigenvalues:   209.6593   215.6163   239.2940
     12  H    Isotropic =    32.5803   Anisotropy =    12.0234
   XX=    37.7192   YX=     0.0989   ZX=    -4.8194
   XY=     0.0199   YY=    27.4734   ZY=     0.9265
   XZ=    -4.7691   YZ=     1.0098   ZZ=    32.5484
   Eigenvalues:    27.1643    29.9808    40.5959
     13  H    Isotropic =    32.4535   Anisotropy =    13.9942
   XX=    34.4422   YX=    -1.9961   ZX=     6.5843
   XY=    -1.7054   YY=    29.6616   ZY=    -3.8982
   XZ=     6.4837   YZ=    -4.0479   ZZ=    33.2568
   Eigenvalues:    26.1090    29.4685    41.7830
     14  H    Isotropic =    32.3515   Anisotropy =    13.5412
   XX=    32.4111   YX=     4.9147   ZX=     3.0178
   XY=     4.6757   YY=    36.7840   ZY=     3.5571
   XZ=     3.0663   YZ=     3.2620   ZZ=    27.8595
   Eigenvalues:    26.2052    29.4704    41.3790
     15  H    Isotropic =    32.8224   Anisotropy =     9.8523
   XX=    33.0506   YX=    -0.2262   ZX=    -2.3687
   XY=     0.1691   YY=    27.6590   ZY=     3.1217
   XZ=    -2.1702   YZ=     3.0633   ZZ=    37.7576
   Eigenvalues:    26.7287    32.3479    39.3906
     16  H    Isotropic =    31.8939   Anisotropy =     7.8717
   XX=    32.1504   YX=    -0.4483   ZX=    -3.0780
   XY=     0.0048   YY=    29.6753   ZY=    -2.7308
   XZ=    -2.8222   YZ=    -4.3131   ZZ=    33.8561
   Eigenvalues:    27.0517    31.4884    37.1418
     17  H    Isotropic =    32.2591   Anisotropy =    12.7248
   XX=    29.5888   YX=    -0.8914   ZX=    -4.0011
   XY=    -0.7799   YY=    28.8272   ZY=     3.1982
   XZ=    -3.8322   YZ=     3.1199   ZZ=    38.3614
   Eigenvalues:    27.6758    28.3592    40.7423
     18  H    Isotropic =    32.4128   Anisotropy =    12.6008
   XX=    32.1692   YX=    -3.5089   ZX=     2.6416
   XY=    -3.4961   YY=    31.9812   ZY=    -6.4902
   XZ=     2.1529   YZ=    -6.0362   ZZ=    33.0880
   Eigenvalues:    26.0523    30.3728    40.8133
     19  H    Isotropic =    32.9577   Anisotropy =    10.4990
   XX=    33.9378   YX=     2.4333   ZX=     3.8679
   XY=     2.8920   YY=    31.3806   ZY=     3.5710
   XZ=     3.7277   YZ=     3.9576   ZZ=    33.5546
   Eigenvalues:    28.5405    30.3755    39.9570
     20  H    Isotropic =    32.5899   Anisotropy =    13.5395
   XX=    35.3247   YX=     5.0403   ZX=    -2.9770
   XY=     5.0364   YY=    30.1137   ZY=    -5.1207
   XZ=    -3.1134   YZ=    -5.2769   ZZ=    32.3312
   Eigenvalues:    25.3530    30.8004    41.6162
     21  H    Isotropic =    32.4123   Anisotropy =    11.5130
   XX=    31.1264   YX=    -2.5245   ZX=     0.2563
   XY=    -2.1556   YY=    38.5941   ZY=     3.3230
   XZ=     0.3872   YZ=     3.5035   ZZ=    27.5164
   Eigenvalues:    26.3463    30.8029    40.0877
     22  H    Isotropic =    32.2221   Anisotropy =    11.1181
   XX=    33.5941   YX=    -2.2384   ZX=    -4.4254
   XY=    -2.0478   YY=    30.8667   ZY=     4.0764
   XZ=    -4.4244   YZ=     4.3638   ZZ=    32.2055
   Eigenvalues:    26.8919    30.1402    39.6342
     23  H    Isotropic =    32.0875   Anisotropy =    13.5902
   XX=    32.6090   YX=    -3.0241   ZX=     4.9595
   XY=    -2.6932   YY=    34.1842   ZY=    -5.2958
   XZ=     5.2535   YZ=    -5.6798   ZZ=    29.4692
   Eigenvalues:    24.6315    30.4833    41.1476
     24  H    Isotropic =    34.8847   Anisotropy =    17.0410
   XX=    40.9765   YX=     7.3841   ZX=     0.3734
   XY=     5.5302   YY=    37.1982   ZY=     4.4958
   XZ=     0.4470   YZ=     3.9588   ZZ=    26.4794
   Eigenvalues:    24.7896    33.6192    46.2454
     25  H    Isotropic =    32.8826   Anisotropy =     8.3810
   XX=    34.7931   YX=     0.9371   ZX=     2.5481
   XY=     0.8730   YY=    28.9595   ZY=     3.3605
   XZ=     2.6384   YZ=     3.4160   ZZ=    34.8953
   Eigenvalues:    27.4138    32.7641    38.4700
     26  H    Isotropic =    32.6907   Anisotropy =    11.8317
   XX=    33.9477   YX=    -2.1131   ZX=     5.7449
   XY=    -2.0256   YY=    29.2894   ZY=    -1.2335
   XZ=     5.6985   YZ=    -1.0543   ZZ=    34.8349
   Eigenvalues:    28.0130    29.4806    40.5785
     27  H    Isotropic =    32.4260   Anisotropy =    10.2640
   XX=    32.9146   YX=     1.3947   ZX=    -2.0711
   XY=     1.6985   YY=    38.0037   ZY=    -2.7625
   XZ=    -2.4586   YZ=    -2.6930   ZZ=    26.3597
   Eigenvalues:    25.2736    32.7358    39.2686
     28  H    Isotropic =    32.5612   Anisotropy =    14.1358
   XX=    33.7649   YX=    -5.8581   ZX=    -5.0538
   XY=    -5.8065   YY=    33.5714   ZY=     2.5376
   XZ=    -4.8613   YZ=     2.5889   ZZ=    30.3472
   Eigenvalues:    26.3520    29.3465    41.9850
     29  H    Isotropic =    32.8511   Anisotropy =    11.8487
   XX=    36.6969   YX=     4.6873   ZX=     3.0723
   XY=     4.8268   YY=    30.8699   ZY=     2.0449
   XZ=     3.1244   YZ=     1.9575   ZZ=    30.9866
   Eigenvalues:    28.1716    29.6316    40.7503
     30  H    Isotropic =    32.5803   Anisotropy =    10.7627
   XX=    31.5237   YX=    -1.0383   ZX=    -1.9065
   XY=    -1.3932   YY=    35.2411   ZY=    -6.3935
   XZ=    -1.6539   YZ=    -6.1967   ZZ=    30.9762
   Eigenvalues:    25.6688    32.3167    39.7554
     31  H    Isotropic =    32.5368   Anisotropy =    14.2083
   XX=    34.2464   YX=    -1.8775   ZX=    -7.5838
   XY=    -1.5971   YY=    29.5973   ZY=     1.4190
   XZ=    -7.5811   YZ=     1.5267   ZZ=    33.7669
   Eigenvalues:    26.4123    29.1892    42.0090
 End of Minotr Frequency-dependent properties file   721 does not exist.
 End of Minotr Frequency-dependent properties file   722 does not exist.

 **********************************************************************

            Population analysis using the SCF density.

 **********************************************************************

 Orbital symmetries:
       Occupied  (A) (A) (A) (A) (A) (A) (A) (A) (A) (A) (A) (A)
                 (A) (A) (A) (A) (A) (A) (A) (A) (A) (A) (A) (A)
                 (A) (A) (A) (A) (A) (A) (A) (A) (A) (A) (A) (A)
                 (A) (A) (A) (A) (A) (A) (A) (A)
       Virtual   (A) (A) (A) (A) (A) (A) (A) (A) (A) (A) (A) (A)
                 (A) (A) (A) (A) (A) (A) (A) (A) (A) (A) (A) (A)
                 (A) (A) (A) (A) (A) (A) (A)
 The electronic state is 1-A.
 Alpha  occ. eigenvalues --  -20.23488 -11.08241 -11.05037 -11.04622 -11.04311
 Alpha  occ. eigenvalues --  -11.03517 -11.03488 -11.03439 -11.03395 -11.03291
 Alpha  occ. eigenvalues --  -11.03137  -1.27517  -1.08291  -1.03726  -0.96853
 Alpha  occ. eigenvalues --   -0.94531  -0.89176  -0.87951  -0.80434  -0.77394
 Alpha  occ. eigenvalues --   -0.73761  -0.68886  -0.63335  -0.60866  -0.60142
 Alpha  occ. eigenvalues --   -0.57050  -0.56490  -0.53889  -0.53583  -0.51399
 Alpha  occ. eigenvalues --   -0.50614  -0.50117  -0.49328  -0.48262  -0.47250
 Alpha  occ. eigenvalues --   -0.46236  -0.44484  -0.43493  -0.42300  -0.40476
 Alpha  occ. eigenvalues --   -0.39471  -0.38660  -0.36738  -0.32807
 Alpha virt. eigenvalues --    0.52505   0.55980   0.57722   0.59495   0.60199
 Alpha virt. eigenvalues --    0.61680   0.62318   0.62920   0.64733   0.66432
 Alpha virt. eigenvalues --    0.67176   0.69459   0.70717   0.71095   0.71959
 Alpha virt. eigenvalues --    0.73209   0.73415   0.73919   0.74775   0.75926
 Alpha virt. eigenvalues --    0.76342   0.77195   0.78825   0.79379   0.79886
 Alpha virt. eigenvalues --    0.80962   0.81833   0.82296   0.85103   0.86581
 Alpha virt. eigenvalues --    0.88080
          Condensed to atoms (all electrons):
              1          2          3          4          5          6
     1  C    4.738189   0.366076   0.000712   0.000683   0.000009  -0.023983
     2  C    0.366076   4.743949  -0.020410  -0.020726  -0.004793   0.361449
     3  C    0.000712  -0.020410   4.749080  -0.022670   0.353954  -0.003450
     4  C    0.000683  -0.020726  -0.022670   4.757482   0.360709   0.362305
     5  C    0.000009  -0.004793   0.353954   0.360709   4.794505  -0.021003
     6  C   -0.023983   0.361449  -0.003450   0.362305  -0.021003   4.758989
     7  C   -0.023817   0.363793   0.359811  -0.009316  -0.020371  -0.023548
     8  O   -0.000001   0.000247   0.266264   0.000234  -0.019027   0.000004
     9  C    0.000002  -0.000265  -0.019876  -0.019648   0.356958  -0.001105
    10  C    0.000000   0.000009   0.000553  -0.003389  -0.020128  -0.000157
    11  C    0.000000   0.000002  -0.002134   0.000596  -0.021792  -0.000001
    12  H    0.382319  -0.020765   0.000006   0.000023   0.000000  -0.002285
    13  H    0.382258  -0.020313   0.000013  -0.000018   0.000000   0.001292
    14  H    0.382561  -0.020320  -0.000017   0.000011   0.000000  -0.002153
    15  H   -0.024865   0.382852  -0.002502   0.000506   0.000117  -0.024130
    16  H   -0.000006  -0.000404   0.376819   0.001100  -0.025099   0.000042
    17  H    0.000006  -0.000491  -0.002034   0.381953  -0.022324  -0.023160
    18  H   -0.000013   0.001150   0.001156   0.383310  -0.019711  -0.021341
    19  H    0.000000   0.000039  -0.022100  -0.024019   0.379118   0.001247
    20  H   -0.005852  -0.021242   0.000018  -0.022758   0.001225   0.382630
    21  H    0.000485  -0.022738   0.000033  -0.022236  -0.000480   0.382238
    22  H   -0.002007  -0.021291  -0.021335  -0.000517  -0.000339  -0.002093
    23  H   -0.002435  -0.020619  -0.021699   0.000094   0.001066   0.001233
    24  H    0.000000  -0.000041  -0.040994   0.000006  -0.002880  -0.000001
    25  H    0.000003  -0.000430  -0.002552  -0.000800  -0.022648  -0.000045
    26  H    0.000000  -0.000001   0.000005  -0.000191  -0.002262   0.000014
    27  H    0.000000  -0.000002  -0.000002  -0.001163  -0.001071  -0.000247
    28  H    0.000000   0.000000  -0.000011   0.000050   0.001082   0.000000
    29  H    0.000000   0.000000   0.000062   0.000013  -0.002296   0.000000
    30  H    0.000000   0.000001  -0.001143   0.000004  -0.001386   0.000000
    31  H    0.000000   0.000000   0.000025  -0.000013   0.001129   0.000000
              7          8          9         10         11         12
     1  C   -0.023817  -0.000001   0.000002   0.000000   0.000000   0.382319
     2  C    0.363793   0.000247  -0.000265   0.000009   0.000002  -0.020765
     3  C    0.359811   0.266264  -0.019876   0.000553  -0.002134   0.000006
     4  C   -0.009316   0.000234  -0.019648  -0.003389   0.000596   0.000023
     5  C   -0.020371  -0.019027   0.356958  -0.020128  -0.021792   0.000000
     6  C   -0.023548   0.000004  -0.001105  -0.000157  -0.000001  -0.002285
     7  C    4.764372  -0.019396   0.000477  -0.000006   0.000014  -0.002215
     8  O   -0.019396   7.849872   0.000268  -0.000001   0.000004   0.000000
     9  C    0.000477   0.000268   4.745196   0.364121   0.364225   0.000000
    10  C   -0.000006  -0.000001   0.364121   4.743477  -0.027392   0.000000
    11  C    0.000014   0.000004   0.364225  -0.027392   4.748026   0.000000
    12  H   -0.002215   0.000000   0.000000   0.000000   0.000000   0.629581
    13  H   -0.002196   0.000000   0.000000   0.000000   0.000000  -0.021749
    14  H    0.001295   0.000000   0.000000   0.000000   0.000000  -0.021634
    15  H   -0.025030   0.000002  -0.000452   0.000006   0.000003   0.001927
    16  H   -0.026068  -0.019281  -0.004761   0.000030  -0.001313  -0.000001
    17  H   -0.000547   0.000137   0.001159   0.000039  -0.000013   0.000010
    18  H    0.000087  -0.000008  -0.001910  -0.001293   0.000008  -0.000001
    19  H    0.000903  -0.003042  -0.024230  -0.001198  -0.003455   0.000000
    20  H    0.000341   0.000000   0.000000   0.000002   0.000000   0.000287
    21  H    0.001257   0.000000   0.000036  -0.000201   0.000000   0.000006
    22  H    0.379623  -0.001236  -0.000008   0.000000   0.000000   0.000376
    23  H    0.382707  -0.000003  -0.000012   0.000000   0.000000  -0.000001
    24  H    0.002680   0.256748   0.000015  -0.000001   0.000037   0.000000
    25  H    0.000057   0.000002   0.381015  -0.024379  -0.024088   0.000000
    26  H    0.000000   0.000000  -0.020744   0.381920  -0.001634   0.000000
    27  H    0.000000   0.000000  -0.019559   0.383001   0.001369   0.000000
    28  H    0.000000   0.000000  -0.019562   0.382511  -0.003713   0.000000
    29  H   -0.000001  -0.000005  -0.020809  -0.002055   0.381658   0.000000
    30  H    0.000009  -0.000033  -0.019180   0.001350   0.382166   0.000000
    31  H    0.000000   0.000000  -0.019535  -0.003181   0.382712   0.000000
             13         14         15         16         17         18
     1  C    0.382258   0.382561  -0.024865  -0.000006   0.000006  -0.000013
     2  C   -0.020313  -0.020320   0.382852  -0.000404  -0.000491   0.001150
     3  C    0.000013  -0.000017  -0.002502   0.376819  -0.002034   0.001156
     4  C   -0.000018   0.000011   0.000506   0.001100   0.381953   0.383310
     5  C    0.000000   0.000000   0.000117  -0.025099  -0.022324  -0.019711
     6  C    0.001292  -0.002153  -0.024130   0.000042  -0.023160  -0.021341
     7  C   -0.002196   0.001295  -0.025030  -0.026068  -0.000547   0.000087
     8  O    0.000000   0.000000   0.000002  -0.019281   0.000137  -0.000008
     9  C    0.000000   0.000000  -0.000452  -0.004761   0.001159  -0.001910
    10  C    0.000000   0.000000   0.000006   0.000030   0.000039  -0.001293
    11  C    0.000000   0.000000   0.000003  -0.001313  -0.000013   0.000008
    12  H   -0.021749  -0.021634   0.001927  -0.000001   0.000010  -0.000001
    13  H    0.630596  -0.021634  -0.002404   0.000001   0.000000   0.000000
    14  H   -0.021634   0.630125  -0.002354   0.000000   0.000000  -0.000001
    15  H   -0.002404  -0.002354   0.655595   0.000309  -0.000019  -0.000029
    16  H    0.000001   0.000000   0.000309   0.663901   0.000020  -0.000034
    17  H    0.000000   0.000000  -0.000019   0.000020   0.644797  -0.024738
    18  H    0.000000  -0.000001  -0.000029  -0.000034  -0.024738   0.638574
    19  H    0.000000   0.000000   0.000000   0.000951  -0.003163  -0.001838
    20  H    0.000084  -0.000113   0.001807   0.000001  -0.005020  -0.000422
    21  H   -0.000033   0.000184  -0.006551   0.000001   0.001991  -0.004316
    22  H    0.000008   0.000004   0.001946   0.001896  -0.000720   0.000003
    23  H    0.000203   0.000023  -0.002097  -0.005144   0.000009   0.000000
    24  H    0.000000   0.000000  -0.000001  -0.003802  -0.000001  -0.000001
    25  H    0.000000   0.000000  -0.000181   0.000077  -0.000017   0.000042
    26  H    0.000000   0.000000   0.000000   0.000000  -0.000008  -0.000116
    27  H    0.000000   0.000000   0.000004   0.000001   0.000018  -0.001301
    28  H    0.000000   0.000000   0.000000  -0.000002   0.000000   0.000021
    29  H    0.000000   0.000000   0.000000   0.000040  -0.000001   0.000002
    30  H    0.000000   0.000000   0.000001  -0.000704   0.000000   0.000000
    31  H    0.000000   0.000000   0.000000  -0.000014   0.000000  -0.000001
             19         20         21         22         23         24
     1  C    0.000000  -0.005852   0.000485  -0.002007  -0.002435   0.000000
     2  C    0.000039  -0.021242  -0.022738  -0.021291  -0.020619  -0.000041
     3  C   -0.022100   0.000018   0.000033  -0.021335  -0.021699  -0.040994
     4  C   -0.024019  -0.022758  -0.022236  -0.000517   0.000094   0.000006
     5  C    0.379118   0.001225  -0.000480  -0.000339   0.001066  -0.002880
     6  C    0.001247   0.382630   0.382238  -0.002093   0.001233  -0.000001
     7  C    0.000903   0.000341   0.001257   0.379623   0.382707   0.002680
     8  O   -0.003042   0.000000   0.000000  -0.001236  -0.000003   0.256748
     9  C   -0.024230   0.000000   0.000036  -0.000008  -0.000012   0.000015
    10  C   -0.001198   0.000002  -0.000201   0.000000   0.000000  -0.000001
    11  C   -0.003455   0.000000   0.000000   0.000000   0.000000   0.000037
    12  H    0.000000   0.000287   0.000006   0.000376  -0.000001   0.000000
    13  H    0.000000   0.000084  -0.000033   0.000008   0.000203   0.000000
    14  H    0.000000  -0.000113   0.000184   0.000004   0.000023   0.000000
    15  H    0.000000   0.001807  -0.006551   0.001946  -0.002097  -0.000001
    16  H    0.000951   0.000001   0.000001   0.001896  -0.005144  -0.003802
    17  H   -0.003163  -0.005020   0.001991  -0.000720   0.000009  -0.000001
    18  H   -0.001838  -0.000422  -0.004316   0.000003   0.000000  -0.000001
    19  H    0.651012  -0.000034  -0.000013  -0.000017  -0.000025   0.000478
    20  H   -0.000034   0.642416  -0.024246   0.000218  -0.000025   0.000000
    21  H   -0.000013  -0.024246   0.647610   0.000002  -0.000034   0.000000
    22  H   -0.000017   0.000218   0.000002   0.630273  -0.024300   0.000080
    23  H   -0.000025  -0.000025  -0.000034  -0.024300   0.636073  -0.000032
    24  H    0.000478   0.000000   0.000000   0.000080  -0.000032   0.614073
    25  H    0.001801   0.000002  -0.000228   0.000000  -0.000009   0.000003
    26  H    0.000408   0.000000   0.000003   0.000000   0.000000   0.000000
    27  H    0.000015   0.000004  -0.000008   0.000000   0.000000   0.000000
    28  H   -0.000012   0.000000   0.000000   0.000000   0.000000   0.000000
    29  H    0.000398   0.000000   0.000000   0.000000   0.000000  -0.000006
    30  H   -0.000021   0.000000   0.000000   0.000000   0.000001   0.000024
    31  H    0.000035   0.000000   0.000000   0.000000   0.000000  -0.000001
             25         26         27         28         29         30
     1  C    0.000003   0.000000   0.000000   0.000000   0.000000   0.000000
     2  C   -0.000430  -0.000001  -0.000002   0.000000   0.000000   0.000001
     3  C   -0.002552   0.000005  -0.000002  -0.000011   0.000062  -0.001143
     4  C   -0.000800  -0.000191  -0.001163   0.000050   0.000013   0.000004
     5  C   -0.022648  -0.002262  -0.001071   0.001082  -0.002296  -0.001386
     6  C   -0.000045   0.000014  -0.000247   0.000000   0.000000   0.000000
     7  C    0.000057   0.000000   0.000000   0.000000  -0.000001   0.000009
     8  O    0.000002   0.000000   0.000000   0.000000  -0.000005  -0.000033
     9  C    0.381015  -0.020744  -0.019559  -0.019562  -0.020809  -0.019180
    10  C   -0.024379   0.381920   0.383001   0.382511  -0.002055   0.001350
    11  C   -0.024088  -0.001634   0.001369  -0.003713   0.381658   0.382166
    12  H    0.000000   0.000000   0.000000   0.000000   0.000000   0.000000
    13  H    0.000000   0.000000   0.000000   0.000000   0.000000   0.000000
    14  H    0.000000   0.000000   0.000000   0.000000   0.000000   0.000000
    15  H   -0.000181   0.000000   0.000004   0.000000   0.000000   0.000001
    16  H    0.000077   0.000000   0.000001  -0.000002   0.000040  -0.000704
    17  H   -0.000017  -0.000008   0.000018   0.000000  -0.000001   0.000000
    18  H    0.000042  -0.000116  -0.001301   0.000021   0.000002   0.000000
    19  H    0.001801   0.000408   0.000015  -0.000012   0.000398  -0.000021
    20  H    0.000002   0.000000   0.000004   0.000000   0.000000   0.000000
    21  H   -0.000228   0.000003  -0.000008   0.000000   0.000000   0.000000
    22  H    0.000000   0.000000   0.000000   0.000000   0.000000   0.000000
    23  H   -0.000009   0.000000   0.000000   0.000000   0.000000   0.000001
    24  H    0.000003   0.000000   0.000000   0.000000  -0.000006   0.000024
    25  H    0.650533   0.001884  -0.002931  -0.001566   0.001864  -0.002255
    26  H    0.001884   0.630438  -0.021449  -0.021560   0.000283   0.000000
    27  H   -0.002931  -0.021449   0.630585  -0.022604   0.000008  -0.000038
    28  H   -0.001566  -0.021560  -0.022604   0.630924  -0.000011   0.000058
    29  H    0.001864   0.000283   0.000008  -0.000011   0.633149  -0.022111
    30  H   -0.002255   0.000000  -0.000038   0.000058  -0.022111   0.634311
    31  H   -0.002009   0.000010   0.000048  -0.000075  -0.021513  -0.022334
             31
     1  C    0.000000
     2  C    0.000000
     3  C    0.000025
     4  C   -0.000013
     5  C    0.001129
     6  C    0.000000
     7  C    0.000000
     8  O    0.000000
     9  C   -0.019535
    10  C   -0.003181
    11  C    0.382712
    12  H    0.000000
    13  H    0.000000
    14  H    0.000000
    15  H    0.000000
    16  H   -0.000014
    17  H    0.000000
    18  H   -0.000001
    19  H    0.000035
    20  H    0.000000
    21  H    0.000000
    22  H    0.000000
    23  H    0.000000
    24  H   -0.000001
    25  H   -0.002009
    26  H    0.000010
    27  H    0.000048
    28  H   -0.000075
    29  H   -0.021513
    30  H   -0.022334
    31  H    0.628943
 Mulliken atomic charges:
              1
     1  C   -0.170324
     2  C   -0.024716
     3  C    0.074419
     4  C   -0.101611
     5  C   -0.042260
     6  C   -0.102741
     7  C   -0.104914
     8  O   -0.311750
     9  C   -0.021818
    10  C   -0.173641
    11  C   -0.175284
    12  H    0.054116
    13  H    0.053894
    14  H    0.054023
    15  H    0.045539
    16  H    0.041441
    17  H    0.052118
    18  H    0.052720
    19  H    0.046761
    20  H    0.050678
    21  H    0.047238
    22  H    0.059436
    23  H    0.055026
    24  H    0.173616
    25  H    0.046856
    26  H    0.053000
    27  H    0.055322
    28  H    0.054470
    29  H    0.051329
    30  H    0.051282
    31  H    0.055775
 Sum of Mulliken atomic charges =   0.00000
 Mulliken charges with hydrogens summed into heavy atoms:
              1
     1  C   -0.008290
     2  C    0.020823
     3  C    0.115860
     4  C    0.003226
     5  C    0.004501
     6  C   -0.004826
     7  C    0.009549
     8  O   -0.138134
     9  C    0.025038
    10  C   -0.010849
    11  C   -0.016898
 Sum of Mulliken charges with hydrogens summed into heavy atoms =   0.00000
 Electronic spatial extent (au):  <R**2>=           2066.2064
 Charge=              0.0000 electrons
 Dipole moment (field-independent basis, Debye):
    X=              0.9583    Y=             -0.8567    Z=             -0.6000  Tot=              1.4186
 Quadrupole moment (field-independent basis, Debye-Ang):
   XX=            -66.4494   YY=            -70.9865   ZZ=            -67.6444
   XY=              2.8923   XZ=              0.5448   YZ=             -1.4815
 Traceless Quadrupole moment (field-independent basis, Debye-Ang):
   XX=              1.9107   YY=             -2.6264   ZZ=              0.7157
   XY=              2.8923   XZ=              0.5448   YZ=             -1.4815
 Octapole moment (field-independent basis, Debye-Ang**2):
  XXX=              2.9097  YYY=              4.9054  ZZZ=              2.8324  XYY=              8.8015
  XXY=              9.3481  XXZ=              4.0360  XZZ=              0.4084  YZZ=              3.6779
  YYZ=             -3.9449  XYZ=              3.4675
 Hexadecapole moment (field-independent basis, Debye-Ang**3):
 XXXX=          -1585.5084 YYYY=           -736.4889 ZZZZ=           -330.4927 XXXY=             -1.3179
 XXXZ=             -3.0871 YYYX=             32.3609 YYYZ=              0.1422 ZZZX=              0.1527
 ZZZY=              7.8205 XXYY=           -371.8939 XXZZ=           -308.9391 YYZZ=           -175.2057
 XXYZ=              8.5918 YYXZ=              6.2909 ZZXY=             -1.3430
 N-N= 6.947344278654D+02 E-N=-2.461408196030D+03  KE= 4.555468300026D+02
 ******************************Gaussian NBO Version 3.1******************************
             N A T U R A L   A T O M I C   O R B I T A L   A N D
          N A T U R A L   B O N D   O R B I T A L   A N A L Y S I S
 ******************************Gaussian NBO Version 3.1******************************
       /RESON  / : Allow strongly delocalized NBO set
       /NLMO   / : Form Natural Localized Molecular Orbitals
       /NMR /    : Analyze NMR Sheilding Tensor 

 Analyzing the SCF density

 Job title: comment                                                         

 Storage needed:     19864 in NPA,     23691 in NBO,     45933 in NLMO (  33549317 available)


 NATURAL POPULATIONS:  Natural atomic orbital occupancies 
                                                          
   NAO  Atom  No  lang   Type(AO)    Occupancy      Energy
 ----------------------------------------------------------
     1    C    1  S      Cor( 1S)     1.99997     -10.96485
     2    C    1  S      Val( 2S)     1.07976      -0.18100
     3    C    1  px     Val( 2p)     0.98972       0.09009
     4    C    1  py     Val( 2p)     1.02717       0.08466
     5    C    1  pz     Val( 2p)     1.02859       0.08400

     6    C    2  S      Cor( 1S)     1.99997     -10.98854
     7    C    2  S      Val( 2S)     1.07839      -0.19029
     8    C    2  px     Val( 2p)     0.96534       0.10717
     9    C    2  py     Val( 2p)     0.95813       0.11019
    10    C    2  pz     Val( 2p)     0.98464       0.10423

    11    C    3  S      Cor( 1S)     1.99988     -11.03202
    12    C    3  S      Val( 2S)     1.09295      -0.21776
    13    C    3  px     Val( 2p)     0.97402       0.08509
    14    C    3  py     Val( 2p)     0.85481       0.11675
    15    C    3  pz     Val( 2p)     0.93489       0.10590

    16    C    4  S      Cor( 1S)     1.99996     -10.97303
    17    C    4  S      Val( 2S)     1.08468      -0.18836
    18    C    4  px     Val( 2p)     0.98853       0.09735
    19    C    4  py     Val( 2p)     1.00066       0.09770
    20    C    4  pz     Val( 2p)     0.99102       0.09744

    21    C    5  S      Cor( 1S)     1.99995     -10.98902
    22    C    5  S      Val( 2S)     1.10709      -0.21570
    23    C    5  px     Val( 2p)     0.96792       0.10287
    24    C    5  py     Val( 2p)     0.97528       0.09430
    25    C    5  pz     Val( 2p)     0.97012       0.10439

    26    C    6  S      Cor( 1S)     1.99996     -10.97243
    27    C    6  S      Val( 2S)     1.08465      -0.18698
    28    C    6  px     Val( 2p)     0.99771       0.09403
    29    C    6  py     Val( 2p)     0.99323       0.09667
    30    C    6  pz     Val( 2p)     0.98973       0.10225

    31    C    7  S      Cor( 1S)     1.99996     -10.97340
    32    C    7  S      Val( 2S)     1.09051      -0.19303
    33    C    7  px     Val( 2p)     0.97725       0.09575
    34    C    7  py     Val( 2p)     0.98445       0.10012
    35    C    7  pz     Val( 2p)     1.02921       0.08697

    36    O    8  S      Cor( 1S)     1.99999     -20.13872
    37    O    8  S      Val( 2S)     1.75214      -0.99795
    38    O    8  px     Val( 2p)     1.34706      -0.12216
    39    O    8  py     Val( 2p)     1.44109      -0.14830
    40    O    8  pz     Val( 2p)     1.79278      -0.29478

    41    C    9  S      Cor( 1S)     1.99996     -10.99481
    42    C    9  S      Val( 2S)     1.08724      -0.20204
    43    C    9  px     Val( 2p)     0.96158       0.10552
    44    C    9  py     Val( 2p)     0.95405       0.10663
    45    C    9  pz     Val( 2p)     0.97722       0.10121

    46    C   10  S      Cor( 1S)     1.99997     -10.96675
    47    C   10  S      Val( 2S)     1.08112      -0.18477
    48    C   10  px     Val( 2p)     1.02076       0.08218
    49    C   10  py     Val( 2p)     1.00305       0.08594
    50    C   10  pz     Val( 2p)     1.02473       0.08177

    51    C   11  S      Cor( 1S)     1.99997     -10.96911
    52    C   11  S      Val( 2S)     1.08226      -0.18837
    53    C   11  px     Val( 2p)     1.00951       0.07956
    54    C   11  py     Val( 2p)     1.01585       0.08096
    55    C   11  pz     Val( 2p)     1.02284       0.08020

    56    H   12  S      Val( 1S)     0.96331       0.07545

    57    H   13  S      Val( 1S)     0.96351       0.07547

    58    H   14  S      Val( 1S)     0.96328       0.07449

    59    H   15  S      Val( 1S)     0.97839       0.06519

    60    H   16  S      Val( 1S)     0.99500       0.05220

    61    H   17  S      Val( 1S)     0.96901       0.07471

    62    H   18  S      Val( 1S)     0.96852       0.07437

    63    H   19  S      Val( 1S)     0.97813       0.06039

    64    H   20  S      Val( 1S)     0.97003       0.07276

    65    H   21  S      Val( 1S)     0.97344       0.07139

    66    H   22  S      Val( 1S)     0.96165       0.07964

    67    H   23  S      Val( 1S)     0.96591       0.07537

    68    H   24  S      Val( 1S)     0.81411       0.07536

    69    H   25  S      Val( 1S)     0.97892       0.06253

    70    H   26  S      Val( 1S)     0.96429       0.07141

    71    H   27  S      Val( 1S)     0.96236       0.07627

    72    H   28  S      Val( 1S)     0.96278       0.07270

    73    H   29  S      Val( 1S)     0.96602       0.06737

    74    H   30  S      Val( 1S)     0.96637       0.07022

    75    H   31  S      Val( 1S)     0.96164       0.07136


 Summary of Natural Population Analysis:                  
                                                          
                                       Natural Population 
                Natural  -----------------------------------------------
    Atom  No    Charge         Core      Valence    Rydberg      Total
 -----------------------------------------------------------------------
      C    1   -0.12521      1.99997     4.12524    0.00000     6.12521
      C    2    0.01353      1.99997     3.98650    0.00000     5.98647
      C    3    0.14344      1.99988     3.85668    0.00000     5.85656
      C    4   -0.06485      1.99996     4.06490    0.00000     6.06485
      C    5   -0.02036      1.99995     4.02041    0.00000     6.02036
      C    6   -0.06528      1.99996     4.06532    0.00000     6.06528
      C    7   -0.08138      1.99996     4.08142    0.00000     6.08138
      O    8   -0.33307      1.99999     6.33308    0.00000     8.33307
      C    9    0.01994      1.99996     3.98010    0.00000     5.98006
      C   10   -0.12963      1.99997     4.12966    0.00000     6.12963
      C   11   -0.13044      1.99997     4.13047    0.00000     6.13044
      H   12    0.03669      0.00000     0.96331    0.00000     0.96331
      H   13    0.03649      0.00000     0.96351    0.00000     0.96351
      H   14    0.03672      0.00000     0.96328    0.00000     0.96328
      H   15    0.02161      0.00000     0.97839    0.00000     0.97839
      H   16    0.00500      0.00000     0.99500    0.00000     0.99500
      H   17    0.03099      0.00000     0.96901    0.00000     0.96901
      H   18    0.03148      0.00000     0.96852    0.00000     0.96852
      H   19    0.02187      0.00000     0.97813    0.00000     0.97813
      H   20    0.02997      0.00000     0.97003    0.00000     0.97003
      H   21    0.02656      0.00000     0.97344    0.00000     0.97344
      H   22    0.03835      0.00000     0.96165    0.00000     0.96165
      H   23    0.03409      0.00000     0.96591    0.00000     0.96591
      H   24    0.18589      0.00000     0.81411    0.00000     0.81411
      H   25    0.02108      0.00000     0.97892    0.00000     0.97892
      H   26    0.03571      0.00000     0.96429    0.00000     0.96429
      H   27    0.03764      0.00000     0.96236    0.00000     0.96236
      H   28    0.03722      0.00000     0.96278    0.00000     0.96278
      H   29    0.03398      0.00000     0.96602    0.00000     0.96602
      H   30    0.03363      0.00000     0.96637    0.00000     0.96637
      H   31    0.03836      0.00000     0.96164    0.00000     0.96164
 =======================================================================
   * Total *    0.00000     21.99954    66.00046    0.00000    88.00000

                                 Natural Population      
 --------------------------------------------------------
   Core                      21.99954 ( 99.9979% of  22)
   Valence                   66.00046 (100.0007% of  66)
   Natural Minimal Basis     88.00000 (100.0000% of  88)
   Natural Rydberg Basis      0.00000 (  0.0000% of  88)
 --------------------------------------------------------

    Atom  No          Natural Electron Configuration
 ----------------------------------------------------------------------------
      C    1      [core]2S( 1.08)2p( 3.05)
      C    2      [core]2S( 1.08)2p( 2.91)
      C    3      [core]2S( 1.09)2p( 2.76)
      C    4      [core]2S( 1.08)2p( 2.98)
      C    5      [core]2S( 1.11)2p( 2.91)
      C    6      [core]2S( 1.08)2p( 2.98)
      C    7      [core]2S( 1.09)2p( 2.99)
      O    8      [core]2S( 1.75)2p( 4.58)
      C    9      [core]2S( 1.09)2p( 2.89)
      C   10      [core]2S( 1.08)2p( 3.05)
      C   11      [core]2S( 1.08)2p( 3.05)
      H   12            1S( 0.96)
      H   13            1S( 0.96)
      H   14            1S( 0.96)
      H   15            1S( 0.98)
      H   16            1S( 1.00)
      H   17            1S( 0.97)
      H   18            1S( 0.97)
      H   19            1S( 0.98)
      H   20            1S( 0.97)
      H   21            1S( 0.97)
      H   22            1S( 0.96)
      H   23            1S( 0.97)
      H   24            1S( 0.81)
      H   25            1S( 0.98)
      H   26            1S( 0.96)
      H   27            1S( 0.96)
      H   28            1S( 0.96)
      H   29            1S( 0.97)
      H   30            1S( 0.97)
      H   31            1S( 0.96)


 NATURAL BOND ORBITAL ANALYSIS:

                       Occupancies       Lewis Structure    Low   High
           Occ.    -------------------  -----------------   occ   occ
  Cycle   Thresh.   Lewis   Non-Lewis     CR  BD  3C  LP    (L)   (NL)   Dev
 =============================================================================
   1(1)    1.90    87.64339   0.35661     11  31   0   2     0      0    0.02
 -----------------------------------------------------------------------------

 Structure accepted: No low occupancy Lewis orbitals

 --------------------------------------------------------
   Core                     21.99954 ( 99.998% of  22)
   Valence Lewis            65.64386 ( 99.460% of  66)
  ==================       ============================
   Total Lewis              87.64339 ( 99.595% of  88)
  -----------------------------------------------------
   Valence non-Lewis         0.35661 (  0.405% of  88)
   Rydberg non-Lewis         0.00000 (  0.000% of  88)
  ==================       ============================
   Total non-Lewis           0.35661 (  0.405% of  88)
 --------------------------------------------------------


       (Occupancy)   Bond orbital/ Coefficients/ Hybrids
 ---------------------------------------------------------------------------------
     1. (1.98936) BD ( 1) C   1 - C   2  
                ( 50.74%)   0.7124* C   1 s( 25.73%)p 2.89( 74.27%)
                                            0.0001  0.5072  0.8389  0.1585  0.1178
                ( 49.26%)   0.7018* C   2 s( 25.25%)p 2.96( 74.75%)
                                            0.0000  0.5025 -0.8465 -0.1514 -0.0897
     2. (1.99526) BD ( 1) C   1 - H  12  
                ( 51.87%)   0.7202* C   1 s( 24.82%)p 3.03( 75.18%)
                                            0.0000  0.4982 -0.4352  0.1654  0.7315
                ( 48.13%)   0.6937* H  12 s(100.00%)
                                            1.0000
     3. (1.99504) BD ( 1) C   1 - H  13  
                ( 51.84%)   0.7200* C   1 s( 24.69%)p 3.05( 75.31%)
                                            0.0000  0.4969 -0.3068  0.5055 -0.6352
                ( 48.16%)   0.6940* H  13 s(100.00%)
                                            1.0000
     4. (1.99491) BD ( 1) C   1 - H  14  
                ( 51.84%)   0.7200* C   1 s( 24.76%)p 3.04( 75.24%)
                                            0.0000  0.4976 -0.1131 -0.8319 -0.2181
                ( 48.16%)   0.6940* H  14 s(100.00%)
                                            1.0000
     5. (1.98509) BD ( 1) C   2 - C   6  
                ( 49.67%)   0.7048* C   2 s( 25.13%)p 2.98( 74.87%)
                                            0.0000  0.5013  0.3252 -0.5175  0.6125
                ( 50.33%)   0.7094* C   6 s( 25.58%)p 2.91( 74.42%)
                                            0.0001  0.5058 -0.3294  0.5464 -0.5806
     6. (1.98409) BD ( 1) C   2 - C   7  
                ( 49.47%)   0.7033* C   2 s( 25.10%)p 2.98( 74.90%)
                                            0.0001  0.5010  0.1261  0.8270  0.2218
                ( 50.53%)   0.7109* C   7 s( 25.60%)p 2.91( 74.40%)
                                            0.0001  0.5060 -0.1325 -0.8270 -0.2064
     7. (1.98546) BD ( 1) C   2 - H  15  
                ( 51.02%)   0.7143* C   2 s( 24.52%)p 3.08( 75.48%)
                                            0.0000  0.4952  0.4023 -0.1593 -0.7534
                ( 48.98%)   0.6999* H  15 s(100.00%)
                                            1.0000
     8. (1.98226) BD ( 1) C   3 - C   5  
                ( 49.92%)   0.7065* C   3 s( 26.11%)p 2.83( 73.89%)
                                            0.0001  0.5110  0.4570 -0.6279  0.3685
                ( 50.08%)   0.7077* C   5 s( 25.04%)p 2.99( 74.96%)
                                            0.0000  0.5004 -0.4783  0.6052 -0.3931
     9. (1.98612) BD ( 1) C   3 - C   7  
                ( 50.09%)   0.7077* C   3 s( 26.45%)p 2.78( 73.55%)
                                            0.0000  0.5143 -0.8356 -0.1930 -0.0057
                ( 49.91%)   0.7065* C   7 s( 24.94%)p 3.01( 75.06%)
                                            0.0001  0.4994  0.8506  0.1565  0.0513
    10. (1.98860) BD ( 1) C   3 - O   8  
                ( 41.03%)   0.6405* C   3 s( 21.88%)p 3.57( 78.12%)
                                            0.0000  0.4677  0.1139  0.7396  0.4704
                ( 58.97%)   0.7680* O   8 s( 16.21%)p 5.17( 83.79%)
                                            0.0000  0.4026 -0.0293 -0.7767 -0.4836
    11. (1.98870) BD ( 1) C   3 - H  16  
                ( 50.55%)   0.7110* C   3 s( 25.56%)p 2.91( 74.44%)
                                            0.0000  0.5056  0.2828  0.1467 -0.8018
                ( 49.45%)   0.7032* H  16 s(100.00%)
                                            1.0000
    12. (1.98520) BD ( 1) C   4 - C   5  
                ( 50.24%)   0.7088* C   4 s( 25.46%)p 2.93( 74.54%)
                                            0.0001  0.5046  0.5160  0.5037 -0.4748
                ( 49.76%)   0.7054* C   5 s( 25.19%)p 2.97( 74.81%)
                                            0.0000  0.5019 -0.5177 -0.5537  0.4165
    13. (1.99026) BD ( 1) C   4 - C   6  
                ( 49.95%)   0.7067* C   4 s( 25.41%)p 2.94( 74.59%)
                                            0.0000  0.5041 -0.5992 -0.3655 -0.5032
                ( 50.05%)   0.7075* C   6 s( 25.32%)p 2.95( 74.68%)
                                            0.0000  0.5032  0.6199  0.3928  0.4563
    14. (1.98950) BD ( 1) C   4 - H  17  
                ( 51.51%)   0.7177* C   4 s( 24.02%)p 3.16( 75.98%)
                                            0.0000  0.4901 -0.3939  0.4854  0.6075
                ( 48.49%)   0.6963* H  17 s(100.00%)
                                            1.0000
    15. (1.98950) BD ( 1) C   4 - H  18  
                ( 51.57%)   0.7181* C   4 s( 25.11%)p 2.98( 74.89%)
                                            0.0000  0.5011  0.4685 -0.6141  0.3902
                ( 48.43%)   0.6959* H  18 s(100.00%)
                                            1.0000
    16. (1.97999) BD ( 1) C   5 - C   9  
                ( 49.85%)   0.7061* C   5 s( 25.07%)p 2.99( 74.93%)
                                            0.0001  0.5007  0.4680 -0.4273 -0.5897
                ( 50.15%)   0.7081* C   9 s( 25.35%)p 2.94( 74.65%)
                                            0.0001  0.5035 -0.4896  0.4006  0.5884
    17. (1.98288) BD ( 1) C   5 - H  19  
                ( 50.97%)   0.7140* C   5 s( 24.70%)p 3.05( 75.30%)
                                            0.0000  0.4970  0.5331  0.3803  0.5694
                ( 49.03%)   0.7002* H  19 s(100.00%)
                                            1.0000
    18. (1.99073) BD ( 1) C   6 - H  20  
                ( 51.50%)   0.7176* C   6 s( 24.69%)p 3.05( 75.31%)
                                            0.0000  0.4969 -0.6275 -0.2688  0.5359
                ( 48.50%)   0.6964* H  20 s(100.00%)
                                            1.0000
    19. (1.99155) BD ( 1) C   6 - H  21  
                ( 51.33%)   0.7165* C   6 s( 24.41%)p 3.10( 75.59%)
                                            0.0000  0.4940  0.3369 -0.6891 -0.4093
                ( 48.67%)   0.6976* H  21 s(100.00%)
                                            1.0000
    20. (1.98921) BD ( 1) C   7 - H  22  
                ( 51.92%)   0.7206* C   7 s( 24.69%)p 3.05( 75.31%)
                                            0.0000  0.4969 -0.3696  0.1720  0.7661
                ( 48.08%)   0.6934* H  22 s(100.00%)
                                            1.0000
    21. (1.98975) BD ( 1) C   7 - H  23  
                ( 51.67%)   0.7188* C   7 s( 24.77%)p 3.04( 75.23%)
                                            0.0000  0.4977 -0.3498  0.5119 -0.6065
                ( 48.33%)   0.6952* H  23 s(100.00%)
                                            1.0000
    22. (1.98956) BD ( 1) O   8 - H  24  
                ( 59.31%)   0.7701* O   8 s( 16.62%)p 5.02( 83.38%)
                                            0.0000  0.4077  0.8886  0.2055 -0.0445
                ( 40.69%)   0.6379* H  24 s(100.00%)
                                            1.0000
    23. (1.98921) BD ( 1) C   9 - C  10  
                ( 49.07%)   0.7005* C   9 s( 25.09%)p 2.98( 74.91%)
                                            0.0000  0.5009  0.3850 -0.6868  0.3593
                ( 50.93%)   0.7136* C  10 s( 25.78%)p 2.88( 74.22%)
                                            0.0001  0.5078 -0.3976  0.6941 -0.3198
    24. (1.98907) BD ( 1) C   9 - C  11  
                ( 48.84%)   0.6989* C   9 s( 24.69%)p 3.05( 75.31%)
                                            0.0000  0.4969  0.6053  0.5477 -0.2944
                ( 51.16%)   0.7152* C  11 s( 25.84%)p 2.87( 74.16%)
                                            0.0001  0.5083 -0.6156 -0.5150  0.3121
    25. (1.98514) BD ( 1) C   9 - H  25  
                ( 50.99%)   0.7141* C   9 s( 24.86%)p 3.02( 75.14%)
                                            0.0000  0.4986 -0.4956 -0.2604 -0.6618
                ( 49.01%)   0.7000* H  25 s(100.00%)
                                            1.0000
    26. (1.99542) BD ( 1) C  10 - H  26  
                ( 51.82%)   0.7199* C  10 s( 24.86%)p 3.02( 75.14%)
                                            0.0000  0.4986  0.4357  0.2155  0.7177
                ( 48.18%)   0.6941* H  26 s(100.00%)
                                            1.0000
    27. (1.99453) BD ( 1) C  10 - H  27  
                ( 51.90%)   0.7204* C  10 s( 24.70%)p 3.05( 75.30%)
                                            0.0000  0.4970 -0.5860 -0.6100  0.1936
                ( 48.10%)   0.6935* H  27 s(100.00%)
                                            1.0000
    28. (1.99425) BD ( 1) C  10 - H  28  
                ( 51.86%)   0.7201* C  10 s( 24.65%)p 3.06( 75.35%)
                                            0.0000  0.4965  0.5556 -0.3157 -0.5875
                ( 48.14%)   0.6938* H  28 s(100.00%)
                                            1.0000
    29. (1.99551) BD ( 1) C  11 - H  29  
                ( 51.74%)   0.7193* C  11 s( 24.72%)p 3.05( 75.28%)
                                            0.0000  0.4972  0.5013  0.2845  0.6485
                ( 48.26%)   0.6947* H  29 s(100.00%)
                                            1.0000
    30. (1.99430) BD ( 1) C  11 - H  30  
                ( 51.72%)   0.7192* C  11 s( 24.77%)p 3.04( 75.23%)
                                            0.0000  0.4977 -0.3607  0.6794 -0.4008
                ( 48.28%)   0.6949* H  30 s(100.00%)
                                            1.0000
    31. (1.99457) BD ( 1) C  11 - H  31  
                ( 51.92%)   0.7205* C  11 s( 24.68%)p 3.05( 75.32%)
                                            0.0000  0.4968  0.4895 -0.4385 -0.5669
                ( 48.08%)   0.6934* H  31 s(100.00%)
                                            1.0000
    32. (1.99997) CR ( 1) C   1           s(100.00%)
                                            1.0000  0.0000 -0.0001  0.0000  0.0000
    33. (1.99997) CR ( 1) C   2           s(100.00%)
                                            1.0000  0.0000  0.0000  0.0000  0.0000
    34. (1.99989) CR ( 1) C   3           s(100.00%)
                                            1.0000  0.0000 -0.0001  0.0001  0.0000
    35. (1.99996) CR ( 1) C   4           s(100.00%)
                                            1.0000  0.0000  0.0000  0.0000  0.0001
    36. (1.99995) CR ( 1) C   5           s(100.00%)
                                            1.0000  0.0000  0.0000  0.0000  0.0000
    37. (1.99996) CR ( 1) C   6           s(100.00%)
                                            1.0000  0.0000  0.0000 -0.0001  0.0000
    38. (1.99996) CR ( 1) C   7           s(100.00%)
                                            1.0000 -0.0001  0.0000  0.0001  0.0000
    39. (1.99999) CR ( 1) O   8           s(100.00%)
                                            1.0000  0.0000  0.0000  0.0000  0.0000
    40. (1.99996) CR ( 1) C   9           s(100.00%)
                                            1.0000  0.0000  0.0001  0.0000  0.0000
    41. (1.99997) CR ( 1) C  10           s(100.00%)
                                            1.0000  0.0000  0.0001 -0.0001  0.0000
    42. (1.99997) CR ( 1) C  11           s(100.00%)
                                            1.0000  0.0000  0.0001  0.0000  0.0000
    43. (1.99341) LP ( 1) O   8           s( 67.08%)p 0.49( 32.92%)
                                            0.0000  0.8190 -0.4212  0.2596  0.2905
    44. (1.97544) LP ( 2) O   8           s(  0.09%)p99.99( 99.91%)
                                            0.0000  0.0305 -0.1792  0.5359 -0.8245
    45. (0.00944) BD*( 1) C   1 - C   2  
                ( 49.26%)   0.7018* C   1 s( 25.73%)p 2.89( 74.27%)
                                           -0.0001 -0.5072 -0.8389 -0.1585 -0.1178
                ( 50.74%)  -0.7124* C   2 s( 25.25%)p 2.96( 74.75%)
                                            0.0000 -0.5025  0.8465  0.1514  0.0897
    46. (0.00583) BD*( 1) C   1 - H  12  
                ( 48.13%)   0.6937* C   1 s( 24.82%)p 3.03( 75.18%)
                                            0.0000 -0.4982  0.4352 -0.1654 -0.7315
                ( 51.87%)  -0.7202* H  12 s(100.00%)
                                           -1.0000
    47. (0.00523) BD*( 1) C   1 - H  13  
                ( 48.16%)   0.6940* C   1 s( 24.69%)p 3.05( 75.31%)
                                            0.0000 -0.4969  0.3068 -0.5055  0.6352
                ( 51.84%)  -0.7200* H  13 s(100.00%)
                                           -1.0000
    48. (0.00494) BD*( 1) C   1 - H  14  
                ( 48.16%)   0.6940* C   1 s( 24.76%)p 3.04( 75.24%)
                                            0.0000 -0.4976  0.1131  0.8319  0.2181
                ( 51.84%)  -0.7200* H  14 s(100.00%)
                                           -1.0000
    49. (0.01681) BD*( 1) C   2 - C   6  
                ( 50.33%)   0.7094* C   2 s( 25.13%)p 2.98( 74.87%)
                                            0.0000  0.5013  0.3252 -0.5175  0.6125
                ( 49.67%)  -0.7048* C   6 s( 25.58%)p 2.91( 74.42%)
                                            0.0001  0.5058 -0.3294  0.5464 -0.5806
    50. (0.01431) BD*( 1) C   2 - C   7  
                ( 50.53%)   0.7109* C   2 s( 25.10%)p 2.98( 74.90%)
                                            0.0001  0.5010  0.1261  0.8270  0.2218
                ( 49.47%)  -0.7033* C   7 s( 25.60%)p 2.91( 74.40%)
                                            0.0001  0.5060 -0.1325 -0.8270 -0.2064
    51. (0.01161) BD*( 1) C   2 - H  15  
                ( 48.98%)   0.6999* C   2 s( 24.52%)p 3.08( 75.48%)
                                            0.0000 -0.4952 -0.4023  0.1593  0.7534
                ( 51.02%)  -0.7143* H  15 s(100.00%)
                                           -1.0000
    52. (0.03419) BD*( 1) C   3 - C   5  
                ( 50.08%)   0.7077* C   3 s( 26.11%)p 2.83( 73.89%)
                                            0.0001  0.5110  0.4570 -0.6279  0.3685
                ( 49.92%)  -0.7065* C   5 s( 25.04%)p 2.99( 74.96%)
                                            0.0000  0.5004 -0.4783  0.6052 -0.3931
    53. (0.02121) BD*( 1) C   3 - C   7  
                ( 49.91%)   0.7065* C   3 s( 26.45%)p 2.78( 73.55%)
                                            0.0000 -0.5143  0.8356  0.1930  0.0057
                ( 50.09%)  -0.7077* C   7 s( 24.94%)p 3.01( 75.06%)
                                           -0.0001 -0.4994 -0.8506 -0.1565 -0.0513
    54. (0.02057) BD*( 1) C   3 - O   8  
                ( 58.97%)   0.7680* C   3 s( 21.88%)p 3.57( 78.12%)
                                            0.0000  0.4677  0.1139  0.7396  0.4704
                ( 41.03%)  -0.6405* O   8 s( 16.21%)p 5.17( 83.79%)
                                            0.0000  0.4026 -0.0293 -0.7767 -0.4836
    55. (0.02300) BD*( 1) C   3 - H  16  
                ( 49.45%)   0.7032* C   3 s( 25.56%)p 2.91( 74.44%)
                                            0.0000 -0.5056 -0.2828 -0.1467  0.8018
                ( 50.55%)  -0.7110* H  16 s(100.00%)
                                           -1.0000
    56. (0.01594) BD*( 1) C   4 - C   5  
                ( 49.76%)   0.7054* C   4 s( 25.46%)p 2.93( 74.54%)
                                           -0.0001 -0.5046 -0.5160 -0.5037  0.4748
                ( 50.24%)  -0.7088* C   5 s( 25.19%)p 2.97( 74.81%)
                                            0.0000 -0.5019  0.5177  0.5537 -0.4165
    57. (0.01218) BD*( 1) C   4 - C   6  
                ( 50.05%)   0.7075* C   4 s( 25.41%)p 2.94( 74.59%)
                                            0.0000  0.5041 -0.5992 -0.3655 -0.5032
                ( 49.95%)  -0.7067* C   6 s( 25.32%)p 2.95( 74.68%)
                                            0.0000  0.5032  0.6199  0.3928  0.4563
    58. (0.00842) BD*( 1) C   4 - H  17  
                ( 48.49%)   0.6963* C   4 s( 24.02%)p 3.16( 75.98%)
                                            0.0000 -0.4901  0.3939 -0.4854 -0.6075
                ( 51.51%)  -0.7177* H  17 s(100.00%)
                                           -1.0000
    59. (0.00961) BD*( 1) C   4 - H  18  
                ( 48.43%)   0.6959* C   4 s( 25.11%)p 2.98( 74.89%)
                                            0.0000 -0.5011 -0.4685  0.6141 -0.3902
                ( 51.57%)  -0.7181* H  18 s(100.00%)
                                           -1.0000
    60. (0.02214) BD*( 1) C   5 - C   9  
                ( 50.15%)   0.7081* C   5 s( 25.07%)p 2.99( 74.93%)
                                            0.0001  0.5007  0.4680 -0.4273 -0.5897
                ( 49.85%)  -0.7061* C   9 s( 25.35%)p 2.94( 74.65%)
                                            0.0001  0.5035 -0.4896  0.4006  0.5884
    61. (0.01174) BD*( 1) C   5 - H  19  
                ( 49.03%)   0.7002* C   5 s( 24.70%)p 3.05( 75.30%)
                                            0.0000 -0.4970 -0.5331 -0.3803 -0.5694
                ( 50.97%)  -0.7140* H  19 s(100.00%)
                                           -1.0000
    62. (0.00865) BD*( 1) C   6 - H  20  
                ( 48.50%)   0.6964* C   6 s( 24.69%)p 3.05( 75.31%)
                                            0.0000 -0.4969  0.6275  0.2688 -0.5359
                ( 51.50%)  -0.7176* H  20 s(100.00%)
                                           -1.0000
    63. (0.00817) BD*( 1) C   6 - H  21  
                ( 48.67%)   0.6976* C   6 s( 24.41%)p 3.10( 75.59%)
                                            0.0000 -0.4940 -0.3369  0.6891  0.4093
                ( 51.33%)  -0.7165* H  21 s(100.00%)
                                           -1.0000
    64. (0.01010) BD*( 1) C   7 - H  22  
                ( 48.08%)   0.6934* C   7 s( 24.69%)p 3.05( 75.31%)
                                            0.0000 -0.4969  0.3696 -0.1720 -0.7661
                ( 51.92%)  -0.7206* H  22 s(100.00%)
                                           -1.0000
    65. (0.00828) BD*( 1) C   7 - H  23  
                ( 48.33%)   0.6952* C   7 s( 24.77%)p 3.04( 75.23%)
                                            0.0000 -0.4977  0.3498 -0.5119  0.6065
                ( 51.67%)  -0.7188* H  23 s(100.00%)
                                           -1.0000
    66. (0.00756) BD*( 1) O   8 - H  24  
                ( 40.69%)   0.6379* O   8 s( 16.62%)p 5.02( 83.38%)
                                            0.0000 -0.4077 -0.8886 -0.2055  0.0445
                ( 59.31%)  -0.7701* H  24 s(100.00%)
                                           -1.0000
    67. (0.01028) BD*( 1) C   9 - C  10  
                ( 50.93%)   0.7136* C   9 s( 25.09%)p 2.98( 74.91%)
                                            0.0000  0.5009  0.3850 -0.6868  0.3593
                ( 49.07%)  -0.7005* C  10 s( 25.78%)p 2.88( 74.22%)
                                            0.0001  0.5078 -0.3976  0.6941 -0.3198
    68. (0.01009) BD*( 1) C   9 - C  11  
                ( 51.16%)   0.7152* C   9 s( 24.69%)p 3.05( 75.31%)
                                            0.0000  0.4969  0.6053  0.5477 -0.2944
                ( 48.84%)  -0.6989* C  11 s( 25.84%)p 2.87( 74.16%)
                                            0.0001  0.5083 -0.6156 -0.5150  0.3121
    69. (0.01189) BD*( 1) C   9 - H  25  
                ( 49.01%)   0.7000* C   9 s( 24.86%)p 3.02( 75.14%)
                                            0.0000 -0.4986  0.4956  0.2604  0.6618
                ( 50.99%)  -0.7141* H  25 s(100.00%)
                                           -1.0000
    70. (0.00571) BD*( 1) C  10 - H  26  
                ( 48.18%)   0.6941* C  10 s( 24.86%)p 3.02( 75.14%)
                                            0.0000 -0.4986 -0.4357 -0.2155 -0.7177
                ( 51.82%)  -0.7199* H  26 s(100.00%)
                                           -1.0000
    71. (0.00580) BD*( 1) C  10 - H  27  
                ( 48.10%)   0.6935* C  10 s( 24.70%)p 3.05( 75.30%)
                                            0.0000 -0.4970  0.5860  0.6100 -0.1936
                ( 51.90%)  -0.7204* H  27 s(100.00%)
                                           -1.0000
    72. (0.00526) BD*( 1) C  10 - H  28  
                ( 48.14%)   0.6938* C  10 s( 24.65%)p 3.06( 75.35%)
                                            0.0000 -0.4965 -0.5556  0.3157  0.5875
[...]
   44       0.1604      -38.2173      38.3777       -39.8146      39.9750
 Sum      346.3296      -25.7428     372.0724       -31.5594     377.8890

 Contributions to Isotropic shielding for atom    9 (   213.0287 ppm):
                         Standard Origin              Atomic Origin
 NLMO      Total    Paramagnetic  Diamagnetic   Paramagnetic  Diamagnetic
   11      -0.2719       -0.6743       0.4024        -1.1838       0.9119
   16       4.1806       -9.5307      13.7113        -3.6726       7.8531
   17       0.4039       -0.0603       0.4642        -0.6305       1.0344
   23      -2.0508       -5.7181       3.6673        -9.5984       7.5476
   24      -1.4244       -4.7407       3.3163        -8.8361       7.4117
   25       7.0272       -5.4634      12.4906        -3.8999      10.9272
   26       0.9369       -0.3511       1.2881        -0.1316       1.0685
   27       0.7545       -0.5613       1.3158        -0.2384       0.9929
   29       0.9401       -0.3211       1.2612        -0.1067       1.0467
   30       0.7963       -0.5013       1.2976        -0.1739       0.9703
   31       0.6651       -0.3449       1.0100        -0.3446       1.0097
   40     199.9215        0.0005     199.9209         0.0000     199.9214
 Sum      211.8790      -28.2667     240.1457       -28.8165     240.6956

 Contributions to Isotropic shielding for atom   10 (   221.7025 ppm):
                         Standard Origin              Atomic Origin
 NLMO      Total    Paramagnetic  Diamagnetic   Paramagnetic  Diamagnetic
   12      -0.1144        0.0554      -0.1698        -1.0174       0.9030
   23       4.5275      -10.9423      15.4698        -3.4247       7.9522
   24      -0.4932        0.2032      -0.6965        -1.2205       0.7273
   25       0.3299       -0.2055       0.5354        -0.7070       1.0369
   26       5.8162       -2.0224       7.8385        -5.3248      11.1410
   27       6.3228       -5.0829      11.4057        -4.8072      11.1300
   28       5.0360        1.2972       3.7388        -6.0825      11.1186
   31      -0.1572       -0.7725       0.6153        -1.0956       0.9385
   41     200.0744       -0.0036     200.0780         0.0022     200.0722
 Sum      221.3419      -17.4733     238.8152       -23.6776     245.0195

 Contributions to Isotropic shielding for atom   11 (   221.5232 ppm):
                         Standard Origin              Atomic Origin
 NLMO      Total    Paramagnetic  Diamagnetic   Paramagnetic  Diamagnetic
   17      -0.1325       -0.1401       0.0076        -1.0432       0.9107
   23      -0.5352        0.1553      -0.6905        -1.2860       0.7509
   24       4.6412      -11.1326      15.7738        -3.4421       8.0833
   25       0.3470       -0.1729       0.5199        -0.6710       1.0181
   28      -0.2028       -0.8530       0.6502        -1.1655       0.9627
   29       5.4598       -1.8647       7.3245        -5.6395      11.0993
   30       6.3108       -4.8420      11.1528        -4.7710      11.0818
   31       5.0290        1.0285       4.0005        -6.1176      11.1466
   42     200.0747       -0.0037     200.0784         0.0022     200.0725
 Sum      220.9921      -17.8252     238.8173       -24.1338     245.1259

 Contributions to Isotropic shielding for atom   12 (    32.5803 ppm):
                         Standard Origin              Atomic Origin
 NLMO      Total    Paramagnetic  Diamagnetic   Paramagnetic  Diamagnetic
    1       1.5663       -0.9709       2.5371         0.6979       0.8683
    2      26.3368        0.2418      26.0950         0.4498      25.8870
    3       1.9219        1.7741       0.1478         0.0963       1.8256
    4       1.9770        1.8359       0.1410         0.1528       1.8241
 Sum       31.8020        2.8809      28.9210         1.3969      30.4051

 Contributions to Isotropic shielding for atom   13 (    32.4535 ppm):
                         Standard Origin              Atomic Origin
 NLMO      Total    Paramagnetic  Diamagnetic   Paramagnetic  Diamagnetic
    1       1.4785       -0.7314       2.2098         0.4953       0.9831
    2       1.8934        1.6955       0.1979         0.0506       1.8428
    3      26.3661        0.2035      26.1626         0.4524      25.9137
    4       1.9506        1.9818      -0.0311         0.1091       1.8416
    6      -0.1201        0.6724      -0.7926        -1.0000       0.8799
 Sum       31.5685        3.8219      27.7466         0.1074      31.4611

 Contributions to Isotropic shielding for atom   14 (    32.3515 ppm):
                         Standard Origin              Atomic Origin
 NLMO      Total    Paramagnetic  Diamagnetic   Paramagnetic  Diamagnetic
    1       1.4487       -0.7552       2.2039         0.4658       0.9829
    2       1.9101        1.7118       0.1983         0.0758       1.8342
    3       1.8826        1.9166      -0.0340         0.0497       1.8329
    4      26.3250        0.1726      26.1524         0.4162      25.9088
    5      -0.1337        0.6714      -0.8052        -1.0642       0.9305
 Sum       31.4326        3.7172      27.7154        -0.0566      31.4893

 Contributions to Isotropic shielding for atom   15 (    32.8224 ppm):
                         Standard Origin              Atomic Origin
 NLMO      Total    Paramagnetic  Diamagnetic   Paramagnetic  Diamagnetic
    1       0.9064        1.8164      -0.9100        -0.0934       0.9998
    3       0.2569       -1.0120       1.2689        -0.7134       0.9703
    4       0.2538       -0.9903       1.2441        -0.7088       0.9626
    5       1.5454        0.1818       1.3636         0.6260       0.9195
    6       1.4807        0.1609       1.3199         0.5926       0.8881
    7      26.4373        0.0852      26.3521         0.3256      26.1117
   19      -0.0719       -0.5924       0.5205        -1.2113       1.1395
 Sum       30.8087       -0.3504      31.1591        -1.1826      31.9913

 Contributions to Isotropic shielding for atom   16 (    31.8939 ppm):
                         Standard Origin              Atomic Origin
 NLMO      Total    Paramagnetic  Diamagnetic   Paramagnetic  Diamagnetic
    8       1.1174       -0.0534       1.1708         0.2011       0.9163
    9       0.8344        0.3178       0.5166        -0.3976       1.2320
   10       0.5369        1.1781      -0.6412        -1.0700       1.6069
   11      26.7446        0.3199      26.4246         0.7244      26.0202
   16      -0.1272       -0.2738       0.1465        -1.2926       1.1654
   21       0.0018       -0.6344       0.6363        -1.0604       1.0622
   22       0.2672       -0.9373       1.2046        -0.7086       0.9759
   24      -0.0151       -0.5372       0.5221        -1.0788       1.0637
   30      -0.4218       -1.6839       1.2621        -0.9135       0.4918
 Sum       28.9383       -2.3041      31.2424        -5.5960      34.5343

 Contributions to Isotropic shielding for atom   17 (    32.2591 ppm):
                         Standard Origin              Atomic Origin
 NLMO      Total    Paramagnetic  Diamagnetic   Paramagnetic  Diamagnetic
   10       0.0626       -0.2557       0.3183        -1.0107       1.0733
   12       1.3596        0.2951       1.0645         0.3618       0.9978
   13       1.1215        0.8308       0.2907         0.1498       0.9717
   14      26.3481        0.0138      26.3343         0.3895      25.9586
   15       1.9719        1.5900       0.3819         0.1185       1.8534
   18       0.0263       -0.4963       0.5226        -1.0448       1.0711
 Sum       30.8900        1.9777      28.9122        -1.0359      31.9259

 Contributions to Isotropic shielding for atom   18 (    32.4128 ppm):
                         Standard Origin              Atomic Origin
 NLMO      Total    Paramagnetic  Diamagnetic   Paramagnetic  Diamagnetic
   12       1.2889        0.4980       0.7909         0.4302       0.8588
   13       1.0948        1.0539       0.0409         0.0930       1.0018
   14       2.0592        1.6023       0.4569         0.2529       1.8063
   15      26.3823        0.0192      26.3631         0.4467      25.9356
   19       0.1227       -0.3171       0.4399        -0.9356       1.0583
   23       0.0303       -0.6200       0.6503        -0.9977       1.0280
   27      -0.3034       -1.1655       0.8621        -1.0797       0.7763
 Sum       30.6748        1.0708      29.6040        -1.7902      32.4650

 Contributions to Isotropic shielding for atom   19 (    32.9577 ppm):
                         Standard Origin              Atomic Origin
 NLMO      Total    Paramagnetic  Diamagnetic   Paramagnetic  Diamagnetic
    8       1.2846        1.0914       0.1933         0.3786       0.9061
   10      -0.1341       -0.3887       0.2546        -1.5774       1.4433
   12       1.1186        1.0916       0.0270        -0.0043       1.1229
   14       0.2047       -0.2673       0.4720        -0.7973       1.0020
   16       1.0121        1.3374      -0.3252        -0.0079       1.0200
   17      26.5134       -0.0033      26.5168         0.5047      26.0087
   22      -0.0185       -1.1609       1.1424        -0.8643       0.8458
   26      -0.0580       -1.1026       1.0446        -0.9253       0.8673
   29      -0.0667       -1.2844       1.2177        -0.9736       0.9069
 Sum       29.8562       -0.6870      30.5432        -4.2669      34.1231

 Contributions to Isotropic shielding for atom   20 (    32.5899 ppm):
                         Standard Origin              Atomic Origin
 NLMO      Total    Paramagnetic  Diamagnetic   Paramagnetic  Diamagnetic
    1      -0.2078       -0.1753      -0.0326        -1.3268       1.1189
    2       0.0180       -1.1025       1.1206        -0.9348       0.9528
    5       1.0912        1.1332      -0.0420         0.2352       0.8560
   13       1.1457        0.9250       0.2207         0.0684       1.0772
   14       0.0586       -0.0240       0.0827        -1.0378       1.0964
   18      26.4381       -0.0843      26.5224         0.4949      25.9433
   19       2.1066        1.7130       0.3936         0.3218       1.7848
 Sum       30.6503        2.3850      28.2654        -2.1791      32.8294

 Contributions to Isotropic shielding for atom   21 (    32.4123 ppm):
                         Standard Origin              Atomic Origin
 NLMO      Total    Paramagnetic  Diamagnetic   Paramagnetic  Diamagnetic
    4      -0.0545       -1.0877       1.0332        -0.8882       0.8337
    5       1.1948        0.4440       0.7508         0.1597       1.0351
    7      -0.0436       -0.4606       0.4170        -1.1275       1.0839
   13       1.2955        0.2840       1.0115         0.3162       0.9793
   18       1.9600        1.8328       0.1272         0.1680       1.7920
   19      26.4531        0.0771      26.3760         0.3915      26.0616
   27      -0.3124       -1.0053       0.6929        -0.5489       0.2364
 Sum       30.4929        0.0843      30.4086        -1.5291      32.0221

 Contributions to Isotropic shielding for atom   22 (    32.2221 ppm):
                         Standard Origin              Atomic Origin
 NLMO      Total    Paramagnetic  Diamagnetic   Paramagnetic  Diamagnetic
    2      -0.0405       -1.2271       1.1866        -0.9218       0.8813
    6       1.1371        0.6109       0.5262         0.3082       0.8289
    9       1.3035        0.4560       0.8475         0.5220       0.7815
   10       0.0675       -0.2866       0.3541        -1.6923       1.7598
   20      26.1376        0.1291      26.0085         0.4402      25.6974
   21       1.9546        1.8360       0.1186         0.1191       1.8355
 Sum       30.5598        1.5183      29.0415        -1.2246      31.7844

 Contributions to Isotropic shielding for atom   23 (    32.0875 ppm):
                         Standard Origin              Atomic Origin
 NLMO      Total    Paramagnetic  Diamagnetic   Paramagnetic  Diamagnetic
    3      -0.0808       -1.3481       1.2673        -0.9712       0.8904
    6       1.0910        0.9646       0.1265         0.1900       0.9010
    9       1.2199        0.7241       0.4957         0.3063       0.9136
   10       0.0796        0.1088      -0.0293        -1.3073       1.3869
   11      -0.0386       -0.1441       0.1055        -1.1243       1.0857
   20       1.9911        1.7172       0.2739         0.0964       1.8947
   21      26.3074        0.0006      26.3069         0.4527      25.8548
 Sum       30.5696        2.0230      28.5466        -2.3575      32.9271

 Contributions to Isotropic shielding for atom   24 (    34.8847 ppm):
                         Standard Origin              Atomic Origin
 NLMO      Total    Paramagnetic  Diamagnetic   Paramagnetic  Diamagnetic
    8      -0.1369        0.2720      -0.4089        -1.1540       1.0170
   10       1.6779        1.4610       0.2169         0.9828       0.6951
   17      -0.1982       -0.3310       0.1328        -1.0106       0.8124
   22      23.1558       -0.3328      23.4886        -0.1048      23.2606
   43       3.9236        1.2946       2.6290         1.9845       1.9391
   44       5.3976        2.3267       3.0709         2.2305       3.1672
 Sum       33.8198        4.6905      29.1293         2.9284      30.8914

 Contributions to Isotropic shielding for atom   25 (    32.8826 ppm):
                         Standard Origin              Atomic Origin
 NLMO      Total    Paramagnetic  Diamagnetic   Paramagnetic  Diamagnetic
   16       1.7198       -0.4566       2.1764         0.7889       0.9308
   23       1.0121        1.1378      -0.1258         0.0143       0.9978
   24       1.0389        1.2448      -0.2059         0.0728       0.9660
   25      26.4468        0.1853      26.2615         0.3601      26.0867
   27       0.2070       -0.9078       1.1148        -0.7622       0.9692
   30       0.2724       -0.8091       1.0815        -0.6367       0.9091
 Sum       30.6969        0.3944      30.3025        -0.1627      30.8597

 Contributions to Isotropic shielding for atom   26 (    32.6907 ppm):
                         Standard Origin              Atomic Origin
 NLMO      Total    Paramagnetic  Diamagnetic   Paramagnetic  Diamagnetic
   23       1.4333       -0.4277       1.8610         0.4878       0.9455
   26      26.3347        0.2186      26.1161         0.4233      25.9115
   27       2.0664        0.8970       1.1695         0.2759       1.7905
   28       1.9238        2.2343      -0.3105         0.1087       1.8151
 Sum       31.7583        2.9222      28.8361         1.2957      30.4625

 Contributions to Isotropic shielding for atom   27 (    32.4260 ppm):
                         Standard Origin              Atomic Origin
 NLMO      Total    Paramagnetic  Diamagnetic   Paramagnetic  Diamagnetic
   12      -0.0851        0.0534      -0.1385        -1.0261       0.9411
   23       1.5524       -1.1019       2.6543         0.5470       1.0055
   26       2.0290        1.0263       1.0027         0.1966       1.8324
   27      26.3046        0.2808      26.0238         0.3924      25.9122
   28       1.8831        1.6396       0.2435        -0.0142       1.8973
 Sum       31.6841        1.8982      29.7859         0.0956      31.5884

 Contributions to Isotropic shielding for atom   28 (    32.5612 ppm):
                         Standard Origin              Atomic Origin
 NLMO      Total    Paramagnetic  Diamagnetic   Paramagnetic  Diamagnetic
   23       1.3208        0.1894       1.1314         0.3352       0.9856
   24      -0.2074        0.6652      -0.8726        -1.2856       1.0782
   26       1.9249        2.0166      -0.0917         0.0723       1.8527
   27       2.0035        1.4271       0.5764         0.1209       1.8827
   28      26.3337        0.0382      26.2955         0.4392      25.8945
   31      -0.1374       -0.9147       0.7773        -1.0260       0.8887
 Sum       31.2381        3.4217      27.8164        -1.3442      32.5823

 Contributions to Isotropic shielding for atom   29 (    32.8511 ppm):
                         Standard Origin              Atomic Origin
 NLMO      Total    Paramagnetic  Diamagnetic   Paramagnetic  Diamagnetic
   23      -0.1484        0.5265      -0.6749        -1.0296       0.8812
   24       1.4765       -0.3960       1.8725         0.5174       0.9590
   29      26.3874        0.2011      26.1863         0.4340      25.9534
   30       2.0262        0.9734       1.0528         0.2034       1.8228
   31       1.9272        2.2464      -0.3192         0.1054       1.8218
 Sum       31.6689        3.5513      28.1176         0.2307      31.4382

 Contributions to Isotropic shielding for atom   30 (    32.5803 ppm):
                         Standard Origin              Atomic Origin
 NLMO      Total    Paramagnetic  Diamagnetic   Paramagnetic  Diamagnetic
    8      -0.1048        0.0634      -0.1682        -1.0984       0.9936
   24       1.5577       -1.1500       2.7077         0.5608       0.9969
   29       1.9716        1.0793       0.8924         0.1234       1.8482
   30      26.3950        0.2700      26.1250         0.3862      26.0088
   31       1.8727        1.6054       0.2673        -0.0168       1.8895
 Sum       31.6922        1.8680      29.8242        -0.0449      31.7371

 Contributions to Isotropic shielding for atom   31 (    32.5368 ppm):
                         Standard Origin              Atomic Origin
 NLMO      Total    Paramagnetic  Diamagnetic   Paramagnetic  Diamagnetic
   23      -0.1842        0.6811      -0.8652        -1.2227       1.0386
   24       1.3313        0.1186       1.2127         0.3037       1.0276
   28      -0.1539       -0.9750       0.8212        -1.0172       0.8634
   29       1.9039        2.0515      -0.1476         0.0638       1.8400
   30       1.9924        1.4110       0.5814         0.1200       1.8725
   31      26.3054        0.0560      26.2494         0.4440      25.8614
 Sum       31.1950        3.3431      27.8518        -1.3084      32.5034
 
 1\1\GINC-COMPUTE-10-4\SP\RHF\STO-3G\C10H20O1\YTSAI.IQUIR\03-Aug-2021\0
 \\# rhf/STO-3G nmr pop=nbo\\comment\\0,1\C,0,1.956724776,0.490086221,-
 2.789030497\C,0,1.051787063,0.181399365,-1.598054479\C,0,0.740142222,-
 1.249575698,0.466729066\C,0,0.557863228,1.26328407,0.671215098\C,0,-0.
 093347673,-0.077452023,1.059379388\C,0,0.68143372,1.4667753,-0.8401745
 11\C,0,1.697342319,-0.838481579,-0.660654429\O,0,1.532317189,-1.840887
 365,1.498456557\C,0,-1.601147847,-0.180915181,0.664788731\C,0,-2.40969
 9511,1.063158398,1.054689893\C,0,-2.263995345,-1.401075287,1.325258395
 \H,0,2.91257255,0.914432052,-2.463468061\H,0,2.168756281,-0.419270009,
 -3.361178435\H,0,1.477883497,1.20722162,-3.464075026\H,0,0.129507272,-
 0.260688203,-1.997635444\H,0,0.092185514,-2.041217911,0.078829962\H,0,
 1.565343884,1.294172005,1.109148464\H,0,0.032632122,2.112888739,1.1202
 4642\H,0,-0.049714149,-0.133227178,2.156510348\H,0,1.424467451,2.25430
 866,-1.017968784\H,0,-0.263862177,1.851264719,-1.242481385\H,0,2.63081
 4463,-0.437329196,-0.242821387\H,0,1.995028476,-1.737501943,-1.2158263
 21\H,0,0.921984586,-2.18238841,2.1742011\H,0,-1.684525045,-0.303009033
 ,-0.421887527\H,0,-2.288763522,1.297347297,2.117704333\H,0,-2.10821485
 6,1.937666446,0.470892302\H,0,-3.477645511,0.910920209,0.862593864\H,0
 ,-2.205340503,-1.337519045,2.417358192\H,0,-1.799903305,-2.341626576,1
 .017772143\H,0,-3.322627169,-1.462760461,1.049482031\\Version=EM64L-G0
 9RevC.01\State=1-A\HF=-459.6110196\RMSD=7.130e-09\Dipole=-0.5490113,0.
 0918211,-0.040591\Quadrupole=-1.6920197,0.3116479,1.3803718,2.1462387,
 -1.4190876,-0.073336\PG=C01 [X(C10H20O1)]\\@


 GETTING A SIMPLE ANSWER FROM A PROFESSOR IS LIKE
 GETTING A THIMBLE OF WATER FROM A FIRE HYDRANT.
     -- PROF. LEN SHAPIRO, NDSU
 Job cpu time:  0 days  0 hours  0 minutes 29.1 seconds.
 File lengths (MBytes):  RWF=      5 Int=      0 D2E=      0 Chk=      1 Scr=      1
 Normal termination of Gaussian 09 at Tue Aug  3 16:33:24 2021.
