 Entering Gaussian System, Link 0=g09
 Input=/home/ytsai.iquir/menthol/01_menthol_M0104_MMFF_NMR_rhf_STO-3G_nbo.gjc
 Output=/home/ytsai.iquir/menthol/01_menthol_M0104_MMFF_NMR_rhf_STO-3G_nbo.log
 Initial command:
 /share/apps/Gaussian09/EM64T.SSE4.2-enabled/g09/l1.exe /tmp/Gau-29134.inp -scrdir=/tmp/
 Entering Link 1 = /share/apps/Gaussian09/EM64T.SSE4.2-enabled/g09/l1.exe PID=     29135.
  
 Copyright (c) 1988,1990,1992,1993,1995,1998,2003,2009,2011,
            Gaussian, Inc.  All Rights Reserved.
  
 This is part of the Gaussian(R) 09 program.  It is based on
 the Gaussian(R) 03 system (copyright 2003, Gaussian, Inc.),
 the Gaussian(R) 98 system (copyright 1998, Gaussian, Inc.),
 the Gaussian(R) 94 system (copyright 1995, Gaussian, Inc.),
 the Gaussian 92(TM) system (copyright 1992, Gaussian, Inc.),
 the Gaussian 90(TM) system (copyright 1990, Gaussian, Inc.),
 the Gaussian 88(TM) system (copyright 1988, Gaussian, Inc.),
 the Gaussian 86(TM) system (copyright 1986, Carnegie Mellon
 University), and the Gaussian 82(TM) system (copyright 1983,
 Carnegie Mellon University). Gaussian is a federally registered
 trademark of Gaussian, Inc.
  
 This software contains proprietary and confidential information,
 including trade secrets, belonging to Gaussian, Inc.
  
 This software is provided under written license and may be
 used, copied, transmitted, or stored only in accord with that
 written license.
  
 The following legend is applicable only to US Government
 contracts under FAR:
  
                    RESTRICTED RIGHTS LEGEND
  
 Use, reproduction and disclosure by the US Government is
 subject to restrictions as set forth in subparagraphs (a)
 and (c) of the Commercial Computer Software - Restricted
 Rights clause in FAR 52.227-19.
  
 Gaussian, Inc.
 340 Quinnipiac St., Bldg. 40, Wallingford CT 06492
  
  
 ---------------------------------------------------------------
 Warning -- This program may not be used in any manner that
 competes with the business of Gaussian, Inc. or will provide
 assistance to any competitor of Gaussian, Inc.  The licensee
 of this program is prohibited from giving any competitor of
 Gaussian, Inc. access to this program.  By using this program,
 the user acknowledges that Gaussian, Inc. is engaged in the
 business of creating and licensing software in the field of
 computational chemistry and represents and warrants to the
 licensee that it is not a competitor of Gaussian, Inc. and that
 it will not use this program in any manner prohibited above.
 ---------------------------------------------------------------
  

 Cite this work as:
 Gaussian 09, Revision C.01,
 M. J. Frisch, G. W. Trucks, H. B. Schlegel, G. E. Scuseria, 
 M. A. Robb, J. R. Cheeseman, G. Scalmani, V. Barone, B. Mennucci, 
 G. A. Petersson, H. Nakatsuji, M. Caricato, X. Li, H. P. Hratchian, 
 A. F. Izmaylov, J. Bloino, G. Zheng, J. L. Sonnenberg, M. Hada, 
 M. Ehara, K. Toyota, R. Fukuda, J. Hasegawa, M. Ishida, T. Nakajima, 
 Y. Honda, O. Kitao, H. Nakai, T. Vreven, J. A. Montgomery, Jr., 
 J. E. Peralta, F. Ogliaro, M. Bearpark, J. J. Heyd, E. Brothers, 
 K. N. Kudin, V. N. Staroverov, T. Keith, R. Kobayashi, J. Normand, 
 K. Raghavachari, A. Rendell, J. C. Burant, S. S. Iyengar, J. Tomasi, 
 M. Cossi, N. Rega, J. M. Millam, M. Klene, J. E. Knox, J. B. Cross, 
 V. Bakken, C. Adamo, J. Jaramillo, R. Gomperts, R. E. Stratmann, 
 O. Yazyev, A. J. Austin, R. Cammi, C. Pomelli, J. W. Ochterski, 
 R. L. Martin, K. Morokuma, V. G. Zakrzewski, G. A. Voth, 
 P. Salvador, J. J. Dannenberg, S. Dapprich, A. D. Daniels, 
 O. Farkas, J. B. Foresman, J. V. Ortiz, J. Cioslowski, 
 and D. J. Fox, Gaussian, Inc., Wallingford CT, 2010.
 
 ******************************************
 Gaussian 09:  EM64L-G09RevC.01 23-Sep-2011
                 3-Aug-2021 
 ******************************************
 %nprocshared=4
 Will use up to    4 processors via shared memory.
 ------------------------
 # rhf/STO-3G nmr pop=nbo
 ------------------------
 1/38=1/1;
 2/12=2,17=6,18=5,40=1/2;
 3/6=3,11=1,16=1,25=1,30=1,116=1/1,2,8,3;
 4//1;
 5/5=2,38=5/2;
 8/6=1,10=90,11=11/1;
 10/13=100,45=16/2;
 6/7=2,8=2,9=2,10=2,28=1,64=1/1,7;
 99/9=1/99;
 -------
 comment
 -------
 Charge =  0 Multiplicity = 1
 Symbolic Z-Matrix:
 6                     0.8207   -0.99573  -2.76151 
 6                    -0.55758  -0.95713  -2.09566 
 6                     0.12664  -1.04361   0.39894 
 6                    -1.07579   0.9897   -0.48529 
 6                     0.14823   0.49868   0.30031 
 6                    -1.059     0.48875  -1.93185 
 6                    -0.5886   -1.73491  -0.7721 
 8                     1.4582   -1.54826   0.5039 
 6                     0.2868    1.23136   1.66896 
 6                     1.56972   0.84229   2.40947 
 6                    -0.9167    1.06407   2.60216 
 1                     0.76225  -0.59188  -3.77841 
 1                     1.56112  -0.40287  -2.21817 
 1                     1.19059  -2.02364  -2.83557 
 1                    -1.24006  -1.46791  -2.78875 
 1                    -0.3786   -1.36326   1.31534 
 1                    -1.11959   2.08533  -0.49045 
 1                    -1.99755   0.6411   -0.0032 
 1                     1.03967   0.79152  -0.2729 
 1                    -0.45605   1.17177  -2.54335 
 1                    -2.08015   0.5626   -2.32739 
 1                    -0.18888  -2.74532  -0.92234 
 1                    -1.64468  -1.85793  -0.49505 
 1                     1.94939  -1.28515  -0.29107 
 1                     0.36742   2.30467   1.4466 
 1                     2.44421   0.94293   1.75838 
 1                     1.72551   1.49606   3.27476 
 1                     1.52903  -0.18691   2.77974 
 1                    -1.0695    0.02107   2.89374 
 1                    -1.83777   1.4301    2.13955 
 1                    -0.76897   1.6425    3.52121 
 
                          Input orientation:                          
 ---------------------------------------------------------------------
 Center     Atomic      Atomic             Coordinates (Angstroms)
 Number     Number       Type             X           Y           Z
 ---------------------------------------------------------------------
      1          6           0        0.820696   -0.995730   -2.761507
      2          6           0       -0.557580   -0.957126   -2.095665
      3          6           0        0.126637   -1.043612    0.398939
      4          6           0       -1.075786    0.989700   -0.485289
      5          6           0        0.148227    0.498681    0.300308
      6          6           0       -1.059000    0.488751   -1.931851
      7          6           0       -0.588602   -1.734905   -0.772104
      8          8           0        1.458196   -1.548256    0.503899
      9          6           0        0.286802    1.231358    1.668965
     10          6           0        1.569722    0.842285    2.409475
     11          6           0       -0.916697    1.064072    2.602161
     12          1           0        0.762245   -0.591877   -3.778408
     13          1           0        1.561124   -0.402866   -2.218168
     14          1           0        1.190590   -2.023637   -2.835574
     15          1           0       -1.240062   -1.467909   -2.788749
     16          1           0       -0.378596   -1.363263    1.315342
     17          1           0       -1.119593    2.085328   -0.490448
     18          1           0       -1.997554    0.641098   -0.003202
     19          1           0        1.039667    0.791520   -0.272903
     20          1           0       -0.456048    1.171766   -2.543354
     21          1           0       -2.080148    0.562596   -2.327388
     22          1           0       -0.188885   -2.745318   -0.922343
     23          1           0       -1.644678   -1.857927   -0.495049
     24          1           0        1.949394   -1.285147   -0.291071
     25          1           0        0.367415    2.304672    1.446601
     26          1           0        2.444208    0.942933    1.758382
     27          1           0        1.725508    1.496055    3.274765
     28          1           0        1.529028   -0.186907    2.779737
     29          1           0       -1.069501    0.021071    2.893736
     30          1           0       -1.837765    1.430101    2.139548
     31          1           0       -0.768967    1.642495    3.521214
 ---------------------------------------------------------------------
                    Distance matrix (angstroms):
                    1          2          3          4          5
     1  C    0.000000
     2  C    1.531171   0.000000
     3  C    3.236114   2.588181   0.000000
     4  C    3.566476   2.579143   2.522308   0.000000
     5  C    3.472778   2.891059   1.545594   1.535080   0.000000
     6  C    2.534812   1.539096   3.030916   1.530938   2.537721
     7  C    2.547592   1.535485   1.536487   2.782640   2.584935
     8  O    3.372621   3.342233   1.427842   3.720320   2.438733
     9  C    4.987389   4.435637   2.610384   2.560440   1.558602
    10  C    5.538808   5.297130   3.111488   3.924297   2.566573
    11  C    6.002521   5.126771   3.222587   3.092441   2.598511
    12  H    1.095719   2.169556   4.249505   4.089545   4.266410
    13  H    1.093133   2.193427   3.052467   3.448972   3.025191
    14  H    1.094943   2.177386   3.543236   4.443028   4.157206
    15  H    2.114337   1.098657   3.494174   3.372352   3.916260
    16  H    4.265452   3.439760   1.094181   3.043810   2.185102
    17  H    4.291311   3.485557   3.483442   1.096515   2.179476
    18  H    4.269659   3.001040   2.740831   1.097081   2.171814
    19  H    3.071704   2.988549   2.157013   2.135305   1.099541
    20  H    2.525016   2.177824   3.728875   2.157048   2.984058
    21  H    3.321406   2.163669   3.857806   2.141142   3.445943
    22  H    2.731820   2.170311   2.177417   3.863673   3.483109
    23  H    3.458075   2.134289   2.144733   2.903913   3.066056
    24  H    2.731443   3.106297   1.963898   3.790035   2.603070
    25  H    5.367150   4.903325   3.516615   2.746668   2.150265
    26  H    5.179151   5.241625   3.341494   4.174518   2.755879
    27  H    6.592743   6.330253   4.156522   4.716105   3.511405
    28  H    5.644583   5.358798   2.892896   4.339338   2.919625
    29  H    6.048844   5.110094   2.964508   3.515124   2.904625
    30  H    6.080495   5.027400   3.606640   2.768453   2.862606
    31  H    6.997132   6.192903   4.214959   4.070915   3.538898
                    6          7          8          9         10
     6  C    0.000000
     7  C    2.551653   0.000000
     8  O    4.051981   2.419174   0.000000
     9  C    3.915165   3.940033   3.233543   0.000000
    10  C    5.087462   4.628468   3.059141   1.531541   0.000000
    11  C    4.572582   4.396315   4.106955   1.532073   2.503717
    12  H    2.809709   3.488433   4.442653   5.764035   6.403025
    13  H    2.782447   2.913202   2.955023   4.405041   4.792239
    14  H    3.491341   2.739854   3.383738   5.630515   5.988972
    15  H    2.143730   2.136012   4.257768   5.430338   6.344558
    16  H    3.799627   2.130645   2.016548   2.701825   3.139668
    17  H    2.151830   3.867229   4.564719   2.714825   4.145736
    18  H    2.150297   2.867359   4.122212   2.891856   4.311258
    19  H    2.692245   3.046848   2.500628   2.128641   2.734719
    20  H    1.097268   3.406411   4.510943   4.277734   5.361233
    21  H    1.097564   3.149941   4.999176   4.692603   5.986455
    22  H    3.497915   1.096941   2.485960   4.770231   5.202366
    23  H    2.813239   1.098722   3.274388   4.237599   5.104877
    24  H    3.858667   2.622041   0.970814   3.597047   3.458766
    25  H    4.092208   4.706889   4.113824   1.099067   2.123969
    26  H    5.108479   4.772013   2.958373   2.178436   1.094887
    27  H    5.989740   5.671980   4.125165   2.172219   1.095633
    28  H    5.417884   4.415453   2.652872   2.188245   1.094526
    29  H    4.848208   4.093055   3.816197   2.191898   2.806136
    30  H    4.250753   4.478324   4.733848   2.185116   3.468337
    31  H    5.581323   5.465523   4.923956   2.171292   2.710308
                   11         12         13         14         15
    11  C    0.000000
    12  H    6.802402   0.000000
    13  H    5.614898   1.763032   0.000000
    14  H    6.598755   1.767018   1.773523   0.000000
    15  H    5.964680   2.399186   3.050660   2.493811   0.000000
    16  H    2.799538   5.276632   4.143738   4.486484   4.194835
    17  H    3.263183   4.638903   4.045043   5.264993   4.233461
    18  H    2.852206   4.836207   4.319736   5.028658   3.575049
    19  H    3.488214   3.778798   2.341480   3.809878   4.078195
    20  H    5.167216   2.473870   2.579573   3.606578   2.764558
    21  H    5.089750   3.393739   3.768675   4.200545   2.245340
    22  H    5.240543   3.701225   3.198245   2.466622   2.494037
    23  H    4.319809   4.263403   3.919630   3.680252   2.361544
    24  H    4.701500   3.748529   2.154733   2.756021   4.055174
    25  H    2.126818   5.987204   4.710227   6.144014   5.895299
    26  H    3.467321   5.986709   4.289983   5.610395   6.329487
    27  H    2.760481   7.418530   5.814227   7.071818   7.371967
    28  H    2.752826   6.615227   5.002672   5.917756   6.349557
    29  H    1.093716   6.946115   5.764675   6.489518   5.876802
    30  H    1.093780   6.772787   5.822534   6.771342   5.748376
    31  H    1.095927   7.785982   6.523292   7.595337   7.050687
                   16         17         18         19         20
    16  H    0.000000
    17  H    3.962668   0.000000
    18  H    2.894313   1.758984   0.000000
    19  H    3.029370   2.526593   3.052881   0.000000
    20  H    4.617565   2.342928   3.018314   2.745305   0.000000
    21  H    4.457992   2.572105   2.326977   3.742534   1.747979
    22  H    2.636911   4.938410   3.947647   3.800044   4.247658
    23  H    2.263884   3.978064   2.571295   3.778178   3.845443
    24  H    2.829524   4.562734   4.401328   2.267262   4.110396
    25  H    3.745332   2.451829   3.234578   2.387100   4.228630
    26  H    3.671927   4.366117   4.787852   2.474222   5.193147
    27  H    4.054910   4.755909   5.033609   3.681398   6.222126
    28  H    2.677181   4.782506   4.568055   3.242746   5.841388
    29  H    2.210217   3.964388   3.104508   3.881982   5.591277
    30  H    3.257510   2.803921   2.288982   3.808848   4.889320
    31  H    3.748712   4.051231   3.864419   4.288431   6.090853
                   21         22         23         24         25
    21  H    0.000000
    22  H    4.061197   0.000000
    23  H    3.066925   1.757662   0.000000
    24  H    4.878315   2.665116   3.645139   0.000000
    25  H    4.823732   5.605691   5.014555   4.290567   0.000000
    26  H    6.108024   5.265231   5.444424   3.067480   2.502920
    27  H    6.836555   6.266567   6.067854   4.527736   2.416704
    28  H    6.298463   4.816855   4.856845   3.288267   3.055252
    29  H    5.345540   4.794878   3.917312   4.578529   3.061660
    30  H    4.556844   5.433977   4.217761   5.255764   2.471411
    31  H    6.090281   6.271730   5.399092   5.522146   2.456392
                   26         27         28         29         30
    26  H    0.000000
    27  H    1.766887   0.000000
    28  H    1.776868   1.765225   0.000000
    29  H    3.805917   3.183212   2.609330   0.000000
    30  H    4.326420   3.740319   3.789440   1.773244   0.000000
    31  H    3.731147   2.510894   3.029403   1.764388   1.759671
                   31
    31  H    0.000000
 Stoichiometry    C10H20O
 Framework group  C1[X(C10H20O)]
 Deg. of freedom    87
 Full point group                 C1      NOp   1
 Largest Abelian subgroup         C1      NOp   1
 Largest concise Abelian subgroup C1      NOp   1
                         Standard orientation:                         
 ---------------------------------------------------------------------
 Center     Atomic      Atomic             Coordinates (Angstroms)
 Number     Number       Type             X           Y           Z
 ---------------------------------------------------------------------
      1          6           0        2.805851    0.651248   -0.861656
      2          6           0        2.313855   -0.293064    0.238661
      3          6           0       -0.014834    0.727498    0.722754
      4          6           0        0.143671   -1.622198   -0.180489
      5          6           0       -0.512298   -0.247162   -0.368773
      6          6           0        1.662902   -1.554214   -0.356804
      7          6           0        1.395065    0.412901    1.246210
      8          8           0       -0.050132    2.069580    0.236646
      9          6           0       -2.063159   -0.358179   -0.477153
     10          6           0       -2.722172    0.988851   -0.788329
     11          6           0       -2.739957   -0.992500    0.742203
     12          1           0        3.593442    0.168998   -1.451348
     13          1           0        2.008234    0.933802   -1.553689
     14          1           0        3.228320    1.565600   -0.432259
     15          1           0        3.212334   -0.610680    0.785380
     16          1           0       -0.686732    0.713170    1.586223
     17          1           0       -0.263625   -2.347512   -0.894895
     18          1           0       -0.076921   -2.010852    0.821446
     19          1           0       -0.183730    0.137367   -1.345078
     20          1           0        1.906704   -1.640465   -1.423162
     21          1           0        2.098743   -2.442627    0.117970
     22          1           0        1.878026    1.324985    1.617871
     23          1           0        1.290503   -0.256397    2.111252
     24          1           0        0.532935    2.130886   -0.537146
     25          1           0       -2.274392   -1.014687   -1.332914
     26          1           0       -2.247275    1.467817   -1.650791
     27          1           0       -3.781749    0.849867   -1.029972
     28          1           0       -2.667653    1.674302    0.063241
     29          1           0       -2.596826   -0.397115    1.648429
     30          1           0       -2.363260   -2.001855    0.931037
     31          1           0       -3.819563   -1.080329    0.575490
 ---------------------------------------------------------------------
 Rotational constants (GHZ):      1.7044811      0.7824982      0.6557555
 Standard basis: STO-3G (5D, 7F)
 There are    75 symmetry adapted basis functions of A   symmetry.
 Integral buffers will be    131072 words long.
 Raffenetti 1 integral format.
 Two-electron integral symmetry is turned on.
    75 basis functions,   225 primitive gaussians,    75 cartesian basis functions
    44 alpha electrons       44 beta electrons
       nuclear repulsion energy       701.3417682585 Hartrees.
 NAtoms=   31 NActive=   31 NUniq=   31 SFac= 1.00D+00 NAtFMM=   60 NAOKFM=F Big=F
 One-electron integrals computed using PRISM.
 NBasis=    75 RedAO= T  NBF=    75
 NBsUse=    75 1.00D-06 NBFU=    75
 Harris functional with IExCor=  205 diagonalized for initial guess.
 ExpMin= 1.69D-01 ExpMax= 1.31D+02 ExpMxC= 1.31D+02 IAcc=1 IRadAn=         1 AccDes= 0.00D+00
 HarFok:  IExCor=  205 AccDes= 0.00D+00 IRadAn=         1 IDoV= 1
 ScaDFX=  1.000000  1.000000  1.000000  1.000000
 FoFCou: FMM=F IPFlag=           0 FMFlag=      100000 FMFlg1=           0
         NFxFlg=           0 DoJE=T BraDBF=F KetDBF=T FulRan=T
         Omega=  0.000000  0.000000  1.000000  0.000000  0.000000 ICntrl=     500 IOpCl=  0
         NMat0=    1 NMatS0=    1 NMatT0=    0 NMatD0=    1 NMtDS0=    0 NMtDT0=    0
         I1Cent=           4 NGrid=           0.
 Petite list used in FoFCou.
 Initial guess orbital symmetries:
       Occupied  (A) (A) (A) (A) (A) (A) (A) (A) (A) (A) (A) (A)
                 (A) (A) (A) (A) (A) (A) (A) (A) (A) (A) (A) (A)
                 (A) (A) (A) (A) (A) (A) (A) (A) (A) (A) (A) (A)
                 (A) (A) (A) (A) (A) (A) (A) (A)
       Virtual   (A) (A) (A) (A) (A) (A) (A) (A) (A) (A) (A) (A)
                 (A) (A) (A) (A) (A) (A) (A) (A) (A) (A) (A) (A)
                 (A) (A) (A) (A) (A) (A) (A)
 The electronic state of the initial guess is 1-A.
 Requested convergence on RMS density matrix=1.00D-08 within 128 cycles.
 Requested convergence on MAX density matrix=1.00D-06.
 Requested convergence on             energy=1.00D-06.
 No special actions if energy rises.
 Keep R1 ints in memory in canonical form, NReq=4898789.
 SCF Done:  E(RHF) =  -459.609064358     A.U. after   10 cycles
             Convg  =    0.9506D-08             -V/T =  2.0089
 Range of M.O.s used for correlation:     1    75
 NBasis=    75 NAE=    44 NBE=    44 NFC=     0 NFV=     0
 NROrb=     75 NOA=    44 NOB=    44 NVA=    31 NVB=    31
          Differentiating once with respect to magnetic field using GIAOs.
          Electric field/nuclear overlap derivatives assumed to be zero.
          Keep R3 ints in memory in canonical form, NReq=4863575.
 FoFCou: FMM=F IPFlag=           0 FMFlag=           0 FMFlg1=           0
         NFxFlg=           0 DoJE=F BraDBF=F KetDBF=T FulRan=T
         Omega=  0.000000  0.000000  1.000000  0.000000  0.000000 ICntrl=    6100 IOpCl=  0
         NMat0=    1 NMatS0=    1 NMatT0=    0 NMatD0=    1 NMtDS0=    0 NMtDT0=    0
         I1Cent=           7 NGrid=          31.
 Symmetry not used in FoFCou.
          There are     3 degrees of freedom in the 1st order CPHF.  IDoFFX=0.
      3 vectors produced by pass  0 Test12= 4.55D-14 3.33D-08 XBig12= 6.92D+00 3.89D-01.
 AX will form     3 AO Fock derivatives at one time.
      3 vectors produced by pass  1 Test12= 4.55D-14 3.33D-08 XBig12= 1.06D-02 1.18D-02.
      3 vectors produced by pass  2 Test12= 4.55D-14 3.33D-08 XBig12= 6.97D-05 2.22D-03.
      3 vectors produced by pass  3 Test12= 4.55D-14 3.33D-08 XBig12= 1.89D-06 3.76D-04.
      3 vectors produced by pass  4 Test12= 4.55D-14 3.33D-08 XBig12= 1.89D-08 2.48D-05.
      3 vectors produced by pass  5 Test12= 4.55D-14 3.33D-08 XBig12= 2.93D-10 2.89D-06.
      3 vectors produced by pass  6 Test12= 4.55D-14 3.33D-08 XBig12= 3.91D-12 4.44D-07.
      1 vectors produced by pass  7 Test12= 4.55D-14 3.33D-08 XBig12= 5.40D-14 4.22D-08.
 Inverted reduced A of dimension    22 with in-core refinement.
 Calculating GIAO nuclear magnetic shielding tensors.
 SCF GIAO Magnetic shielding tensor (ppm):
      1  C    Isotropic =   220.1265   Anisotropy =    26.3151
   XX=   214.1846   YX=     8.9567   ZX=    -6.7494
   XY=    10.4977   YY=   223.4983   ZY=    -6.4924
   XZ=   -10.1853   YZ=    -8.4851   ZZ=   222.6965
   Eigenvalues:   207.0877   215.6218   237.6699
      2  C    Isotropic =   217.4062   Anisotropy =     4.1544
   XX=   217.4444   YX=     2.7796   ZX=    -3.1475
   XY=     1.5146   YY=   218.1668   ZY=     2.3634
   XZ=    -2.9660   YZ=     2.0068   ZZ=   216.6074
   Eigenvalues:   212.3357   219.7071   220.1758
      3  C    Isotropic =   190.2269   Anisotropy =    38.9066
   XX=   180.3873   YX=    -0.4260   ZX=     6.0611
   XY=     0.5434   YY=   212.5388   ZY=   -12.3005
   XZ=     5.3568   YZ=   -11.0388   ZZ=   177.7547
   Eigenvalues:   170.9891   183.5270   216.1647
      4  C    Isotropic =   218.3324   Anisotropy =    14.0805
   XX=   225.2872   YX=    -2.8856   ZX=     1.5456
   XY=    -4.3468   YY=   222.0396   ZY=    -0.4111
   XZ=     3.1571   YZ=     2.7608   ZZ=   207.6703
   Eigenvalues:   207.1739   220.1038   227.7194
      5  C    Isotropic =   208.9311   Anisotropy =    10.4450
   XX=   213.3574   YX=     4.4723   ZX=    -1.1995
   XY=     3.5752   YY=   209.4411   ZY=     1.0973
   XZ=    -0.6074   YZ=    -0.0492   ZZ=   203.9947
   Eigenvalues:   203.7098   207.1890   215.8944
      6  C    Isotropic =   217.2157   Anisotropy =    16.5221
   XX=   219.8619   YX=     7.1726   ZX=    -2.3779
   XY=     7.2633   YY=   220.7088   ZY=     7.6354
   XZ=    -1.5776   YZ=     5.0771   ZZ=   211.0764
   Eigenvalues:   205.8888   217.5279   228.2304
      7  C    Isotropic =   215.5780   Anisotropy =    12.0354
   XX=   223.1880   YX=    -0.8909   ZX=     1.5716
   XY=    -2.8825   YY=   213.9544   ZY=     4.6481
   XZ=     2.0113   YZ=     6.6024   ZZ=   209.5914
   Eigenvalues:   205.3756   217.7567   223.6016
      8  O    Isotropic =   343.7546   Anisotropy =    62.6668
   XX=   342.3894   YX=     6.9993   ZX=   -34.5318
   XY=    -9.5015   YY=   324.7247   ZY=    20.5814
   XZ=   -25.0487   YZ=    -8.2542   ZZ=   364.1496
   Eigenvalues:   320.0458   325.6855   385.5324
      9  C    Isotropic =   212.4478   Anisotropy =    17.2284
   XX=   223.5642   YX=    -1.5672   ZX=     4.2272
   XY=     0.5183   YY=   208.4215   ZY=    -3.4346
   XZ=     0.6961   YZ=    -0.8806   ZZ=   205.3578
   Eigenvalues:   204.0447   209.3653   223.9334
     10  C    Isotropic =   221.3200   Anisotropy =    24.2434
   XX=   221.4105   YX=    -8.5590   ZX=     3.0690
   XY=    -7.5159   YY=   229.5405   ZY=   -10.4413
   XZ=     1.2993   YZ=    -6.8499   ZZ=   213.0089
   Eigenvalues:   209.1728   217.3048   237.4822
     11  C    Isotropic =   224.4507   Anisotropy =    21.1045
   XX=   223.5980   YX=     4.9635   ZX=    -7.2169
   XY=     3.1908   YY=   221.7065   ZY=    -7.9543
   XZ=    -5.6768   YZ=   -10.4948   ZZ=   228.0476
   Eigenvalues:   215.0900   219.7418   238.5204
     12  H    Isotropic =    32.4337   Anisotropy =    14.3023
   XX=    36.0660   YX=    -1.1349   ZX=    -7.1191
   XY=    -1.2366   YY=    28.8476   ZY=     0.7347
   XZ=    -7.5464   YZ=     1.2490   ZZ=    32.3876
   Eigenvalues:    26.6656    28.6670    41.9686
     13  H    Isotropic =    33.2083   Anisotropy =     7.5337
   XX=    34.5701   YX=    -0.5976   ZX=     1.3473
   XY=    -0.4530   YY=    30.1074   ZY=    -4.6008
   XZ=     1.4502   YZ=    -4.4048   ZZ=    34.9475
   Eigenvalues:    27.4053    33.9889    38.2308
     14  H    Isotropic =    32.7070   Anisotropy =    13.5930
   XX=    32.5233   YX=     6.5808   ZX=    -0.3168
   XY=     6.6368   YY=    36.9716   ZY=     1.6069
   XZ=    -0.7257   YZ=     1.1023   ZZ=    28.6263
   Eigenvalues:    26.8995    29.4525    41.7690
     15  H    Isotropic =    32.3701   Anisotropy =    15.3984
   XX=    38.4390   YX=    -3.4127   ZX=     5.8651
   XY=    -3.3531   YY=    28.5022   ZY=    -2.0773
   XZ=     5.9404   YZ=    -2.1903   ZZ=    30.1691
   Eigenvalues:    26.8890    27.5857    42.6357
     16  H    Isotropic =    31.4802   Anisotropy =     9.4931
   XX=    34.0495   YX=     0.3339   ZX=    -3.4900
   XY=     1.0776   YY=    26.2600   ZY=     0.9006
   XZ=    -3.8928   YZ=     2.0448   ZZ=    34.1310
   Eigenvalues:    25.7287    30.9029    37.8089
     17  H    Isotropic =    32.6066   Anisotropy =    12.9990
   XX=    32.4919   YX=     2.2595   ZX=     2.1786
   XY=     2.3750   YY=    35.9180   ZY=     6.6084
   XZ=     2.3119   YZ=     6.8413   ZZ=    29.4101
   Eigenvalues:    25.1261    31.4211    41.2727
     18  H    Isotropic =    32.7540   Anisotropy =    10.6458
   XX=    32.2085   YX=     0.6553   ZX=    -2.6697
   XY=     1.0248   YY=    32.9238   ZY=    -5.8392
   XZ=    -2.4221   YZ=    -6.2732   ZZ=    33.1296
   Eigenvalues:    26.6912    31.7195    39.8512
     19  H    Isotropic =    33.1557   Anisotropy =     7.9383
   XX=    34.4423   YX=     0.2013   ZX=    -2.0956
   XY=     0.4822   YY=    28.8150   ZY=    -3.8458
   XZ=    -1.2254   YZ=    -3.5868   ZZ=    36.2098
   Eigenvalues:    27.2551    33.7640    38.4479
     20  H    Isotropic =    32.6545   Anisotropy =    12.2110
   XX=    30.8722   YX=     0.2369   ZX=    -4.3691
   XY=     0.1492   YY=    30.1214   ZY=     4.3447
   XZ=    -4.6390   YZ=     4.5485   ZZ=    36.9701
   Eigenvalues:    26.4625    30.7060    40.7952
     21  H    Isotropic =    32.1741   Anisotropy =    15.1630
   XX=    31.6142   YX=    -4.9516   ZX=     1.7838
   XY=    -5.2379   YY=    38.7785   ZY=    -3.0505
   XZ=     2.2176   YZ=    -3.2614   ZZ=    26.1296
   Eigenvalues:    25.2452    28.9942    42.2827
     22  H    Isotropic =    32.2983   Anisotropy =    13.7393
   XX=    31.4857   YX=     4.0704   ZX=     3.6069
   XY=     3.7709   YY=    33.9306   ZY=     6.0303
   XZ=     2.9094   YZ=     6.0175   ZZ=    31.4788
   Eigenvalues:    26.5566    28.8805    41.4578
     23  H    Isotropic =    32.3309   Anisotropy =    12.9007
   XX=    28.8824   YX=    -0.3517   ZX=     0.5001
   XY=    -0.6755   YY=    28.8400   ZY=    -4.8816
   XZ=     0.5978   YZ=    -3.9589   ZZ=    39.2704
   Eigenvalues:    27.1676    28.8938    40.9314
     24  H    Isotropic =    35.1797   Anisotropy =    13.0776
   XX=    34.1179   YX=     1.5134   ZX=    -7.0065
   XY=    -0.2528   YY=    35.9816   ZY=    -3.9911
   XZ=    -6.8486   YZ=    -5.6936   ZZ=    35.4395
   Eigenvalues:    26.8521    34.7889    43.8980
     25  H    Isotropic =    32.4830   Anisotropy =    12.2466
   XX=    31.1892   YX=     1.5144   ZX=     3.4982
   XY=     1.4831   YY=    31.4275   ZY=     5.8919
   XZ=     3.4399   YZ=     5.7844   ZZ=    34.8324
   Eigenvalues:    26.8118    29.9899    40.6475
     26  H    Isotropic =    32.4487   Anisotropy =    11.6330
   XX=    31.0963   YX=    -0.2266   ZX=    -0.6677
   XY=     0.1422   YY=    31.7434   ZY=    -7.2101
   XZ=    -0.2459   YZ=    -6.6521   ZZ=    34.5065
   Eigenvalues:    26.0370    31.1052    40.2041
     27  H    Isotropic =    32.4578   Anisotropy =    14.9634
   XX=    40.7997   YX=    -1.8188   ZX=     4.2524
   XY=    -1.8885   YY=    28.6785   ZY=    -1.7442
   XZ=     4.1861   YZ=    -1.7099   ZZ=    27.8952
   Eigenvalues:    26.0809    28.8590    42.4334
     28  H    Isotropic =    32.1083   Anisotropy =     9.1279
   XX=    31.1628   YX=    -2.6518   ZX=     0.2843
   XY=    -2.6568   YY=    34.8840   ZY=     4.3330
   XZ=     0.4849   YZ=     4.4934   ZZ=    30.2782
   Eigenvalues:    26.8586    31.2728    38.1936
     29  H    Isotropic =    32.6787   Anisotropy =     9.9427
   XX=    30.8223   YX=     1.2716   ZX=    -2.1787
   XY=     1.6132   YY=    29.1250   ZY=     2.8111
   XZ=    -2.2325   YZ=     3.0020   ZZ=    38.0889
   Eigenvalues:    27.1032    31.6257    39.3072
     30  H    Isotropic =    32.6263   Anisotropy =    11.3135
   XX=    31.7123   YX=    -0.6577   ZX=    -1.8271
   XY=    -0.4256   YY=    38.1912   ZY=    -4.7385
   XZ=    -1.5557   YZ=    -5.0763   ZZ=    27.9755
   Eigenvalues:    25.4953    32.2150    40.1687
     31  H    Isotropic =    32.5392   Anisotropy =    14.8101
   XX=    41.5185   YX=     3.2533   ZX=    -0.9763
   XY=     3.2883   YY=    28.3513   ZY=    -1.7549
   XZ=    -1.0093   YZ=    -1.6421   ZZ=    27.7477
   Eigenvalues:    26.1818    29.0232    42.4126
 End of Minotr Frequency-dependent properties file   721 does not exist.
 End of Minotr Frequency-dependent properties file   722 does not exist.

 **********************************************************************

            Population analysis using the SCF density.

 **********************************************************************

 Orbital symmetries:
       Occupied  (A) (A) (A) (A) (A) (A) (A) (A) (A) (A) (A) (A)
                 (A) (A) (A) (A) (A) (A) (A) (A) (A) (A) (A) (A)
                 (A) (A) (A) (A) (A) (A) (A) (A) (A) (A) (A) (A)
                 (A) (A) (A) (A) (A) (A) (A) (A)
       Virtual   (A) (A) (A) (A) (A) (A) (A) (A) (A) (A) (A) (A)
                 (A) (A) (A) (A) (A) (A) (A) (A) (A) (A) (A) (A)
                 (A) (A) (A) (A) (A) (A) (A)
 The electronic state is 1-A.
 Alpha  occ. eigenvalues --  -20.23315 -11.08408 -11.04919 -11.04579 -11.04422
 Alpha  occ. eigenvalues --  -11.03866 -11.03788 -11.03761 -11.03677 -11.02914
 Alpha  occ. eigenvalues --  -11.02381  -1.27561  -1.08286  -1.03725  -0.96998
 Alpha  occ. eigenvalues --   -0.94653  -0.88991  -0.88478  -0.79669  -0.79421
 Alpha  occ. eigenvalues --   -0.72902  -0.69147  -0.62368  -0.61587  -0.58049
 Alpha  occ. eigenvalues --   -0.57737  -0.55790  -0.54914  -0.52857  -0.52642
 Alpha  occ. eigenvalues --   -0.51410  -0.50729  -0.49844  -0.49073  -0.46310
 Alpha  occ. eigenvalues --   -0.45650  -0.44340  -0.42959  -0.42282  -0.41754
 Alpha  occ. eigenvalues --   -0.39785  -0.39094  -0.35578  -0.32475
 Alpha virt. eigenvalues --    0.53694   0.54873   0.57123   0.58916   0.60725
 Alpha virt. eigenvalues --    0.61101   0.62165   0.63448   0.64946   0.65226
 Alpha virt. eigenvalues --    0.67421   0.68493   0.69538   0.70814   0.71685
 Alpha virt. eigenvalues --    0.72550   0.73195   0.74590   0.76540   0.76732
 Alpha virt. eigenvalues --    0.77611   0.78220   0.78781   0.79270   0.80880
 Alpha virt. eigenvalues --    0.81505   0.82008   0.82627   0.85207   0.86041
 Alpha virt. eigenvalues --    0.87450
          Condensed to atoms (all electrons):
              1          2          3          4          5          6
     1  C    4.748402   0.363825  -0.000559   0.000453  -0.000224  -0.024459
     2  C    0.363825   4.750553  -0.020059  -0.020283  -0.005423   0.360213
     3  C   -0.000559  -0.020059   4.744105  -0.022071   0.355614  -0.003214
     4  C    0.000453  -0.020283  -0.022071   4.757905   0.360768   0.361716
     5  C   -0.000224  -0.005423   0.355614   0.360768   4.790124  -0.021578
     6  C   -0.024459   0.360213  -0.003214   0.361716  -0.021578   4.761140
     7  C   -0.023927   0.361295   0.355109  -0.007750  -0.022303  -0.022068
     8  O   -0.000202   0.000112   0.268689   0.000265  -0.018022   0.000005
     9  C    0.000002   0.000010  -0.018481  -0.021029   0.358860   0.000647
    10  C    0.000000   0.000000  -0.001358   0.000635  -0.021668  -0.000004
    11  C    0.000000   0.000000  -0.001756  -0.002288  -0.020090   0.000009
    12  H    0.382670  -0.020040  -0.000012   0.000006   0.000006  -0.001822
    13  H    0.381630  -0.020530   0.000208   0.000109  -0.000472  -0.002381
    14  H    0.382256  -0.020116   0.000032  -0.000019   0.000012   0.001268
    15  H   -0.026147   0.383941   0.001200   0.001125   0.000017  -0.023694
    16  H   -0.000014   0.001200   0.379943   0.000190  -0.022898   0.000032
    17  H   -0.000014   0.001144   0.001163   0.383048  -0.020539  -0.021747
    18  H   -0.000014  -0.000230  -0.002670   0.382300  -0.022390  -0.023258
    19  H   -0.000701   0.000144  -0.024052  -0.024186   0.378943  -0.002942
    20  H   -0.006550  -0.021809   0.000030  -0.022719  -0.000551   0.382522
    21  H    0.001300  -0.021966   0.000000  -0.022893   0.001273   0.382794
    22  H   -0.003040  -0.021112  -0.020749   0.000076   0.000998   0.001156
    23  H    0.001381  -0.023278  -0.021717  -0.000393   0.000418  -0.001329
    24  H   -0.000938   0.000097  -0.041761   0.000001  -0.003324   0.000026
    25  H    0.000000  -0.000001   0.001069  -0.002482  -0.023673   0.000013
    26  H    0.000000   0.000000  -0.000010   0.000017  -0.002496   0.000000
    27  H    0.000000   0.000000   0.000005  -0.000014   0.001160   0.000000
    28  H    0.000000   0.000000  -0.000242  -0.000002  -0.001207   0.000000
    29  H    0.000000   0.000000  -0.000653   0.000012  -0.001478  -0.000001
    30  H    0.000000   0.000000   0.000048  -0.000863  -0.001538   0.000004
    31  H    0.000000   0.000000   0.000015   0.000027   0.001104   0.000000
              7          8          9         10         11         12
     1  C   -0.023927  -0.000202   0.000002   0.000000   0.000000   0.382670
     2  C    0.361295   0.000112   0.000010   0.000000   0.000000  -0.020040
     3  C    0.355109   0.268689  -0.018481  -0.001358  -0.001756  -0.000012
     4  C   -0.007750   0.000265  -0.021029   0.000635  -0.002288   0.000006
     5  C   -0.022303  -0.018022   0.358860  -0.021668  -0.020090   0.000006
     6  C   -0.022068   0.000005   0.000647  -0.000004   0.000009  -0.001822
     7  C    4.785686  -0.020374   0.000539   0.000003   0.000009   0.001250
     8  O   -0.020374   7.851085   0.000109  -0.000527   0.000008   0.000003
     9  C    0.000539   0.000109   4.739398   0.364338   0.364439   0.000000
    10  C    0.000003  -0.000527   0.364338   4.741604  -0.026061   0.000000
    11  C    0.000009   0.000008   0.364439  -0.026061   4.743500   0.000000
    12  H    0.001250   0.000003   0.000000   0.000000   0.000000   0.628516
    13  H   -0.001089  -0.000498   0.000003   0.000000   0.000000  -0.022236
    14  H   -0.002767  -0.000023   0.000000   0.000000   0.000000  -0.021457
    15  H   -0.023620  -0.000008   0.000000   0.000000   0.000000  -0.003606
    16  H   -0.025899  -0.020204  -0.003689  -0.000117  -0.000666   0.000001
    17  H    0.000064  -0.000005  -0.002727   0.000018  -0.000057   0.000000
    18  H   -0.000240   0.000002  -0.001199  -0.000006  -0.000733   0.000000
    19  H    0.000059  -0.002581  -0.024713  -0.002495   0.001162   0.000016
    20  H    0.001065   0.000000  -0.000001   0.000000   0.000000  -0.000022
    21  H    0.000657   0.000000  -0.000015   0.000000   0.000000   0.000059
    22  H    0.382054  -0.001918  -0.000009   0.000000   0.000000   0.000038
    23  H    0.379878   0.000677  -0.000010   0.000000   0.000005  -0.000038
    24  H   -0.002115   0.257961   0.000004   0.000030  -0.000002   0.000012
    25  H   -0.000014  -0.000010   0.381594  -0.024896  -0.025112   0.000000
    26  H   -0.000001  -0.000049  -0.020300   0.382285   0.001317   0.000000
    27  H    0.000000   0.000012  -0.020150   0.381973  -0.001982   0.000000
    28  H    0.000003  -0.000052  -0.020186   0.382799  -0.002565   0.000000
    29  H   -0.000010   0.000005  -0.020213  -0.002006   0.382129   0.000000
    30  H   -0.000003   0.000000  -0.019797   0.001322   0.382629   0.000000
    31  H    0.000000   0.000000  -0.019807  -0.002663   0.382415   0.000000
             13         14         15         16         17         18
     1  C    0.381630   0.382256  -0.026147  -0.000014  -0.000014  -0.000014
     2  C   -0.020530  -0.020116   0.383941   0.001200   0.001144  -0.000230
     3  C    0.000208   0.000032   0.001200   0.379943   0.001163  -0.002670
     4  C    0.000109  -0.000019   0.001125   0.000190   0.383048   0.382300
     5  C   -0.000472   0.000012   0.000017  -0.022898  -0.020539  -0.022390
     6  C   -0.002381   0.001268  -0.023694   0.000032  -0.021747  -0.023258
     7  C   -0.001089  -0.002767  -0.023620  -0.025899   0.000064  -0.000240
     8  O   -0.000498  -0.000023  -0.000008  -0.020204  -0.000005   0.000002
     9  C    0.000003   0.000000   0.000000  -0.003689  -0.002727  -0.001199
    10  C    0.000000   0.000000   0.000000  -0.000117   0.000018  -0.000006
    11  C    0.000000   0.000000   0.000000  -0.000666  -0.000057  -0.000733
    12  H   -0.022236  -0.021457  -0.003606   0.000001   0.000000   0.000000
    13  H    0.640998  -0.022087   0.001995  -0.000005  -0.000010  -0.000001
    14  H   -0.022087   0.629385  -0.001711  -0.000003   0.000001   0.000001
    15  H    0.001995  -0.001711   0.652027  -0.000036  -0.000027   0.000003
    16  H   -0.000005  -0.000003  -0.000036   0.632755  -0.000026   0.000245
    17  H   -0.000010   0.000001  -0.000027  -0.000026   0.638414  -0.023665
    18  H   -0.000001   0.000001   0.000003   0.000245  -0.023665   0.645512
    19  H   -0.000399   0.000010  -0.000002   0.001684  -0.001703   0.001967
    20  H    0.000020   0.000105   0.001085   0.000001  -0.004984   0.001979
    21  H    0.000006  -0.000038  -0.007355   0.000003  -0.000265  -0.005236
    22  H    0.000019   0.000183  -0.001425   0.000009   0.000000   0.000001
    23  H   -0.000010   0.000037  -0.004038  -0.005730   0.000011  -0.000468
    24  H   -0.000464  -0.000131  -0.000006   0.003665  -0.000001   0.000001
    25  H    0.000000   0.000000   0.000000   0.000030   0.000234   0.000045
    26  H    0.000000   0.000000   0.000000   0.000017   0.000002   0.000000
    27  H    0.000000   0.000000   0.000000  -0.000008  -0.000001   0.000000
    28  H    0.000000   0.000000   0.000000  -0.000136   0.000000   0.000001
    29  H    0.000000   0.000000   0.000000  -0.000419   0.000009   0.000033
    30  H    0.000000   0.000000   0.000000   0.000034  -0.000015  -0.000854
    31  H    0.000000   0.000000   0.000000  -0.000017  -0.000009   0.000005
             19         20         21         22         23         24
     1  C   -0.000701  -0.006550   0.001300  -0.003040   0.001381  -0.000938
     2  C    0.000144  -0.021809  -0.021966  -0.021112  -0.023278   0.000097
     3  C   -0.024052   0.000030   0.000000  -0.020749  -0.021717  -0.041761
     4  C   -0.024186  -0.022719  -0.022893   0.000076  -0.000393   0.000001
     5  C    0.378943  -0.000551   0.001273   0.000998   0.000418  -0.003324
     6  C   -0.002942   0.382522   0.382794   0.001156  -0.001329   0.000026
     7  C    0.000059   0.001065   0.000657   0.382054   0.379878  -0.002115
     8  O   -0.002581   0.000000   0.000000  -0.001918   0.000677   0.257961
     9  C   -0.024713  -0.000001  -0.000015  -0.000009  -0.000010   0.000004
    10  C   -0.002495   0.000000   0.000000   0.000000   0.000000   0.000030
    11  C    0.001162   0.000000   0.000000   0.000000   0.000005  -0.000002
    12  H    0.000016  -0.000022   0.000059   0.000038  -0.000038   0.000012
    13  H   -0.000399   0.000020   0.000006   0.000019  -0.000010  -0.000464
    14  H    0.000010   0.000105  -0.000038   0.000183   0.000037  -0.000131
    15  H   -0.000002   0.001085  -0.007355  -0.001425  -0.004038  -0.000006
    16  H    0.001684   0.000001   0.000003   0.000009  -0.005730   0.003665
    17  H   -0.001703  -0.004984  -0.000265   0.000000   0.000011  -0.000001
    18  H    0.001967   0.001979  -0.005236   0.000001  -0.000468   0.000001
    19  H    0.659602   0.000326   0.000024  -0.000035  -0.000007   0.000825
    20  H    0.000326   0.644225  -0.024137  -0.000032  -0.000003  -0.000001
    21  H    0.000024  -0.024137   0.645483  -0.000024   0.000140   0.000000
    22  H   -0.000035  -0.000032  -0.000024   0.625126  -0.022119   0.000140
    23  H   -0.000007  -0.000003   0.000140  -0.022119   0.645845  -0.000028
    24  H    0.000825  -0.000001   0.000000   0.000140  -0.000028   0.609698
    25  H   -0.002881   0.000002  -0.000001   0.000000   0.000000  -0.000002
    26  H    0.000257   0.000000   0.000000   0.000000   0.000000  -0.000023
    27  H    0.000025   0.000000   0.000000   0.000000   0.000000  -0.000001
    28  H    0.000010   0.000000   0.000000   0.000000   0.000000  -0.000019
    29  H   -0.000004   0.000000   0.000000   0.000001   0.000006  -0.000001
    30  H    0.000011   0.000000   0.000002   0.000000   0.000000   0.000000
    31  H   -0.000029   0.000000   0.000000   0.000000   0.000000   0.000000
             25         26         27         28         29         30
     1  C    0.000000   0.000000   0.000000   0.000000   0.000000   0.000000
     2  C   -0.000001   0.000000   0.000000   0.000000   0.000000   0.000000
     3  C    0.001069  -0.000010   0.000005  -0.000242  -0.000653   0.000048
     4  C   -0.002482   0.000017  -0.000014  -0.000002   0.000012  -0.000863
     5  C   -0.023673  -0.002496   0.001160  -0.001207  -0.001478  -0.001538
     6  C    0.000013   0.000000   0.000000   0.000000  -0.000001   0.000004
     7  C   -0.000014  -0.000001   0.000000   0.000003  -0.000010  -0.000003
     8  O   -0.000010  -0.000049   0.000012  -0.000052   0.000005   0.000000
     9  C    0.381594  -0.020300  -0.020150  -0.020186  -0.020213  -0.019797
    10  C   -0.024896   0.382285   0.381973   0.382799  -0.002006   0.001322
    11  C   -0.025112   0.001317  -0.001982  -0.002565   0.382129   0.382629
    12  H    0.000000   0.000000   0.000000   0.000000   0.000000   0.000000
    13  H    0.000000   0.000000   0.000000   0.000000   0.000000   0.000000
    14  H    0.000000   0.000000   0.000000   0.000000   0.000000   0.000000
    15  H    0.000000   0.000000   0.000000   0.000000   0.000000   0.000000
    16  H    0.000030   0.000017  -0.000008  -0.000136  -0.000419   0.000034
    17  H    0.000234   0.000002  -0.000001   0.000000   0.000009  -0.000015
    18  H    0.000045   0.000000   0.000000   0.000001   0.000033  -0.000854
    19  H   -0.002881   0.000257   0.000025   0.000010  -0.000004   0.000011
    20  H    0.000002   0.000000   0.000000   0.000000   0.000000   0.000000
    21  H   -0.000001   0.000000   0.000000   0.000000   0.000000   0.000002
    22  H    0.000000   0.000000   0.000000   0.000000   0.000001   0.000000
    23  H    0.000000   0.000000   0.000000   0.000000   0.000006   0.000000
    24  H   -0.000002  -0.000023  -0.000001  -0.000019  -0.000001   0.000000
    25  H    0.656228  -0.001798  -0.003232   0.001929   0.001920  -0.002411
    26  H   -0.001798   0.631212  -0.021881  -0.021030   0.000006  -0.000037
    27  H   -0.003232  -0.021881   0.634895  -0.022072  -0.000005   0.000020
    28  H    0.001929  -0.021030  -0.022072   0.619050   0.000362   0.000017
    29  H    0.001920   0.000006  -0.000005   0.000362   0.630645  -0.021821
    30  H   -0.002411  -0.000037   0.000020   0.000017  -0.021821   0.631826
    31  H   -0.002420   0.000035   0.000094  -0.000026  -0.021899  -0.022126
             31
     1  C    0.000000
     2  C    0.000000
     3  C    0.000015
     4  C    0.000027
     5  C    0.001104
     6  C    0.000000
     7  C    0.000000
     8  O    0.000000
     9  C   -0.019807
    10  C   -0.002663
    11  C    0.382415
    12  H    0.000000
    13  H    0.000000
    14  H    0.000000
    15  H    0.000000
    16  H   -0.000017
    17  H   -0.000009
    18  H    0.000005
    19  H   -0.000029
    20  H    0.000000
    21  H    0.000000
    22  H    0.000000
    23  H    0.000000
    24  H    0.000000
    25  H   -0.002420
    26  H    0.000035
    27  H    0.000094
    28  H   -0.000026
    29  H   -0.021899
    30  H   -0.022126
    31  H    0.630135
 Mulliken atomic charges:
              1
     1  C   -0.175129
     2  C   -0.027683
     3  C    0.072134
     4  C   -0.101660
     5  C   -0.039422
     6  C   -0.103048
     7  C   -0.115493
     8  O   -0.314458
     9  C   -0.017616
    10  C   -0.173208
    11  C   -0.176310
    12  H    0.056656
    13  H    0.045196
    14  H    0.055064
    15  H    0.050281
    16  H    0.060059
    17  H    0.051688
    18  H    0.048871
    19  H    0.041667
    20  H    0.049450
    21  H    0.050191
    22  H    0.060665
    23  H    0.050770
    24  H    0.176357
    25  H    0.045868
    26  H    0.052479
    27  H    0.051164
    28  H    0.063366
    29  H    0.053382
    30  H    0.053553
    31  H    0.055165
 Sum of Mulliken atomic charges =   0.00000
 Mulliken charges with hydrogens summed into heavy atoms:
              1
     1  C   -0.018214
     2  C    0.022597
     3  C    0.132193
     4  C   -0.001102
     5  C    0.002245
     6  C   -0.003407
     7  C   -0.004058
     8  O   -0.138100
     9  C    0.028252
    10  C   -0.006198
    11  C   -0.014209
 Sum of Mulliken charges with hydrogens summed into heavy atoms =   0.00000
 Electronic spatial extent (au):  <R**2>=           2003.0586
 Charge=              0.0000 electrons
 Dipole moment (field-independent basis, Debye):
    X=              0.8432    Y=             -1.2212    Z=             -0.5333  Tot=              1.5770
 Quadrupole moment (field-independent basis, Debye-Ang):
   XX=            -67.1269   YY=            -71.4708   ZZ=            -66.5302
   XY=              1.7843   XZ=             -0.1159   YZ=             -1.7090
 Traceless Quadrupole moment (field-independent basis, Debye-Ang):
   XX=              1.2491   YY=             -3.0948   ZZ=              1.8458
   XY=              1.7843   XZ=             -0.1159   YZ=             -1.7090
 Octapole moment (field-independent basis, Debye-Ang**2):
  XXX=              0.1257  YYY=              1.9784  ZZZ=              1.2283  XYY=              5.1611
  XXY=              3.9248  XXZ=              0.7382  XZZ=              0.2475  YZZ=              4.3573
  YYZ=             -3.7849  XYZ=             -1.4542
 Hexadecapole moment (field-independent basis, Debye-Ang**3):
 XXXX=          -1621.9381 YYYY=           -619.1942 ZZZZ=           -321.0053 XXXY=              0.4265
 XXXZ=              5.4194 YYYX=             11.2169 YYYZ=             -9.0540 ZZZX=             -1.3778
 ZZZY=              3.0046 XXYY=           -373.0925 XXZZ=           -328.3839 YYZZ=           -150.3472
 XXYZ=              6.5849 YYXZ=              1.1908 ZZXY=             -2.3447
 N-N= 7.013417682585D+02 E-N=-2.474608945572D+03  KE= 4.555690708032D+02
 ******************************Gaussian NBO Version 3.1******************************
             N A T U R A L   A T O M I C   O R B I T A L   A N D
          N A T U R A L   B O N D   O R B I T A L   A N A L Y S I S
 ******************************Gaussian NBO Version 3.1******************************
       /RESON  / : Allow strongly delocalized NBO set
       /NLMO   / : Form Natural Localized Molecular Orbitals
       /NMR /    : Analyze NMR Sheilding Tensor 

 Analyzing the SCF density

 Job title: comment                                                         

 Storage needed:     19864 in NPA,     23691 in NBO,     45933 in NLMO (  33549317 available)


 NATURAL POPULATIONS:  Natural atomic orbital occupancies 
                                                          
   NAO  Atom  No  lang   Type(AO)    Occupancy      Energy
 ----------------------------------------------------------
     1    C    1  S      Cor( 1S)     1.99997     -10.97130
     2    C    1  S      Val( 2S)     1.08168      -0.18944
     3    C    1  px     Val( 2p)     1.02259       0.07527
     4    C    1  py     Val( 2p)     1.01641       0.07770
     5    C    1  pz     Val( 2p)     1.00883       0.08112

     6    C    2  S      Cor( 1S)     1.99997     -10.99238
     7    C    2  S      Val( 2S)     1.08197      -0.19771
     8    C    2  px     Val( 2p)     0.98451       0.09814
     9    C    2  py     Val( 2p)     0.95839       0.10562
    10    C    2  pz     Val( 2p)     0.96463       0.10621

    11    C    3  S      Cor( 1S)     1.99989     -11.03339
    12    C    3  S      Val( 2S)     1.09026      -0.21670
    13    C    3  px     Val( 2p)     0.97487       0.08711
    14    C    3  py     Val( 2p)     0.82828       0.12650
    15    C    3  pz     Val( 2p)     0.96775       0.09012

    16    C    4  S      Cor( 1S)     1.99996     -10.97693
    17    C    4  S      Val( 2S)     1.08411      -0.19144
    18    C    4  px     Val( 2p)     0.97505       0.09534
    19    C    4  py     Val( 2p)     0.98588       0.09466
    20    C    4  pz     Val( 2p)     1.01941       0.08894

    21    C    5  S      Cor( 1S)     1.99995     -10.98920
    22    C    5  S      Val( 2S)     1.10187      -0.21187
    23    C    5  px     Val( 2p)     0.96766       0.09859
    24    C    5  py     Val( 2p)     0.96756       0.10108
    25    C    5  pz     Val( 2p)     0.98154       0.10014

    26    C    6  S      Cor( 1S)     1.99996     -10.97628
    27    C    6  S      Val( 2S)     1.08582      -0.19185
    28    C    6  px     Val( 2p)     0.97556       0.09812
    29    C    6  py     Val( 2p)     0.99188       0.09256
    30    C    6  pz     Val( 2p)     1.01235       0.09089

    31    C    7  S      Cor( 1S)     1.99996     -10.97566
    32    C    7  S      Val( 2S)     1.09502      -0.20092
    33    C    7  px     Val( 2p)     0.98324       0.09265
    34    C    7  py     Val( 2p)     1.01568       0.08852
    35    C    7  pz     Val( 2p)     0.99809       0.08384

    36    O    8  S      Cor( 1S)     1.99999     -20.13683
    37    O    8  S      Val( 2S)     1.74862      -0.99402
    38    O    8  px     Val( 2p)     1.73428      -0.27385
    39    O    8  py     Val( 2p)     1.36788      -0.12140
    40    O    8  pz     Val( 2p)     1.48457      -0.16800

    41    C    9  S      Cor( 1S)     1.99996     -10.98985
    42    C    9  S      Val( 2S)     1.08484      -0.19466
    43    C    9  px     Val( 2p)     0.94744       0.11524
    44    C    9  py     Val( 2p)     0.96878       0.10940
    45    C    9  pz     Val( 2p)     0.97532       0.10699

    46    C   10  S      Cor( 1S)     1.99997     -10.95757
    47    C   10  S      Val( 2S)     1.08081      -0.17509
    48    C   10  px     Val( 2p)     1.01826       0.09271
    49    C   10  py     Val( 2p)     1.00001       0.09510
    50    C   10  pz     Val( 2p)     1.03090       0.08996

    51    C   11  S      Cor( 1S)     1.99997     -10.96280
    52    C   11  S      Val( 2S)     1.07975      -0.17994
    53    C   11  px     Val( 2p)     1.02372       0.08327
    54    C   11  py     Val( 2p)     1.02200       0.08712
    55    C   11  pz     Val( 2p)     1.00711       0.08920

    56    H   12  S      Val( 1S)     0.96064       0.07000

    57    H   13  S      Val( 1S)     0.97153       0.06299

    58    H   14  S      Val( 1S)     0.96246       0.06862

    59    H   15  S      Val( 1S)     0.97400       0.06484

    60    H   16  S      Val( 1S)     0.97558       0.06179

    61    H   17  S      Val( 1S)     0.96905       0.06876

    62    H   18  S      Val( 1S)     0.97201       0.06824

    63    H   19  S      Val( 1S)     0.98247       0.05718

    64    H   20  S      Val( 1S)     0.97139       0.06805

    65    H   21  S      Val( 1S)     0.97054       0.06918

    66    H   22  S      Val( 1S)     0.96008       0.07249

    67    H   23  S      Val( 1S)     0.96925       0.06665

    68    H   24  S      Val( 1S)     0.81182       0.08203

    69    H   25  S      Val( 1S)     0.97934       0.06580

    70    H   26  S      Val( 1S)     0.96466       0.08134

    71    H   27  S      Val( 1S)     0.96583       0.07880

    72    H   28  S      Val( 1S)     0.95509       0.09143

    73    H   29  S      Val( 1S)     0.96396       0.07797

    74    H   30  S      Val( 1S)     0.96382       0.07716

    75    H   31  S      Val( 1S)     0.96177       0.07650


 Summary of Natural Population Analysis:                  
                                                          
                                       Natural Population 
                Natural  -----------------------------------------------
    Atom  No    Charge         Core      Valence    Rydberg      Total
 -----------------------------------------------------------------------
      C    1   -0.12947      1.99997     4.12950    0.00000     6.12947
      C    2    0.01053      1.99997     3.98950    0.00000     5.98947
      C    3    0.13895      1.99989     3.86116    0.00000     5.86105
      C    4   -0.06440      1.99996     4.06444    0.00000     6.06440
      C    5   -0.01859      1.99995     4.01864    0.00000     6.01859
      C    6   -0.06557      1.99996     4.06561    0.00000     6.06557
      C    7   -0.09199      1.99996     4.09203    0.00000     6.09199
      O    8   -0.33534      1.99999     6.33535    0.00000     8.33534
      C    9    0.02366      1.99996     3.97638    0.00000     5.97634
      C   10   -0.12995      1.99997     4.12998    0.00000     6.12995
      C   11   -0.13254      1.99997     4.13257    0.00000     6.13254
      H   12    0.03936      0.00000     0.96064    0.00000     0.96064
      H   13    0.02847      0.00000     0.97153    0.00000     0.97153
      H   14    0.03754      0.00000     0.96246    0.00000     0.96246
      H   15    0.02600      0.00000     0.97400    0.00000     0.97400
      H   16    0.02442      0.00000     0.97558    0.00000     0.97558
      H   17    0.03095      0.00000     0.96905    0.00000     0.96905
      H   18    0.02799      0.00000     0.97201    0.00000     0.97201
      H   19    0.01753      0.00000     0.98247    0.00000     0.98247
      H   20    0.02861      0.00000     0.97139    0.00000     0.97139
      H   21    0.02946      0.00000     0.97054    0.00000     0.97054
      H   22    0.03992      0.00000     0.96008    0.00000     0.96008
      H   23    0.03075      0.00000     0.96925    0.00000     0.96925
      H   24    0.18818      0.00000     0.81182    0.00000     0.81182
      H   25    0.02066      0.00000     0.97934    0.00000     0.97934
      H   26    0.03534      0.00000     0.96466    0.00000     0.96466
      H   27    0.03417      0.00000     0.96583    0.00000     0.96583
      H   28    0.04491      0.00000     0.95509    0.00000     0.95509
      H   29    0.03604      0.00000     0.96396    0.00000     0.96396
      H   30    0.03618      0.00000     0.96382    0.00000     0.96382
      H   31    0.03823      0.00000     0.96177    0.00000     0.96177
 =======================================================================
   * Total *    0.00000     21.99955    66.00045    0.00000    88.00000

                                 Natural Population      
 --------------------------------------------------------
   Core                      21.99955 ( 99.9980% of  22)
   Valence                   66.00045 (100.0007% of  66)
   Natural Minimal Basis     88.00000 (100.0000% of  88)
   Natural Rydberg Basis      0.00000 (  0.0000% of  88)
 --------------------------------------------------------

    Atom  No          Natural Electron Configuration
 ----------------------------------------------------------------------------
      C    1      [core]2S( 1.08)2p( 3.05)
      C    2      [core]2S( 1.08)2p( 2.91)
      C    3      [core]2S( 1.09)2p( 2.77)
      C    4      [core]2S( 1.08)2p( 2.98)
      C    5      [core]2S( 1.10)2p( 2.92)
      C    6      [core]2S( 1.09)2p( 2.98)
      C    7      [core]2S( 1.10)2p( 3.00)
      O    8      [core]2S( 1.75)2p( 4.59)
      C    9      [core]2S( 1.08)2p( 2.89)
      C   10      [core]2S( 1.08)2p( 3.05)
      C   11      [core]2S( 1.08)2p( 3.05)
      H   12            1S( 0.96)
      H   13            1S( 0.97)
      H   14            1S( 0.96)
      H   15            1S( 0.97)
      H   16            1S( 0.98)
      H   17            1S( 0.97)
      H   18            1S( 0.97)
      H   19            1S( 0.98)
      H   20            1S( 0.97)
      H   21            1S( 0.97)
      H   22            1S( 0.96)
      H   23            1S( 0.97)
      H   24            1S( 0.81)
      H   25            1S( 0.98)
      H   26            1S( 0.96)
      H   27            1S( 0.97)
      H   28            1S( 0.96)
      H   29            1S( 0.96)
      H   30            1S( 0.96)
      H   31            1S( 0.96)


 NATURAL BOND ORBITAL ANALYSIS:

                       Occupancies       Lewis Structure    Low   High
           Occ.    -------------------  -----------------   occ   occ
  Cycle   Thresh.   Lewis   Non-Lewis     CR  BD  3C  LP    (L)   (NL)   Dev
 =============================================================================
   1(1)    1.90    87.63848   0.36152     11  31   0   2     0      0    0.02
 -----------------------------------------------------------------------------

 Structure accepted: No low occupancy Lewis orbitals

 --------------------------------------------------------
   Core                     21.99955 ( 99.998% of  22)
   Valence Lewis            65.63893 ( 99.453% of  66)
  ==================       ============================
   Total Lewis              87.63848 ( 99.589% of  88)
  -----------------------------------------------------
   Valence non-Lewis         0.36152 (  0.411% of  88)
   Rydberg non-Lewis         0.00000 (  0.000% of  88)
  ==================       ============================
   Total non-Lewis           0.36152 (  0.411% of  88)
 --------------------------------------------------------


       (Occupancy)   Bond orbital/ Coefficients/ Hybrids
 ---------------------------------------------------------------------------------
     1. (1.99103) BD ( 1) C   1 - C   2  
                ( 51.16%)   0.7153* C   1 s( 25.88%)p 2.86( 74.12%)
                                            0.0001  0.5087 -0.2909 -0.5260  0.6164
                ( 48.84%)   0.6988* C   2 s( 24.94%)p 3.01( 75.06%)
                                            0.0000  0.4994  0.2397  0.5407 -0.6331
     2. (1.99443) BD ( 1) C   1 - H  12  
                ( 51.96%)   0.7208* C   1 s( 24.55%)p 3.07( 75.45%)
                                            0.0000  0.4954  0.6223 -0.3993 -0.4559
                ( 48.04%)   0.6931* H  12 s(100.00%)
                                            1.0000
     3. (1.99325) BD ( 1) C   1 - H  13  
                ( 51.45%)   0.7173* C   1 s( 24.81%)p 3.03( 75.19%)
                                            0.0000  0.4981 -0.6488  0.2157 -0.5333
                ( 48.55%)   0.6968* H  13 s(100.00%)
                                            1.0000
     4. (1.99497) BD ( 1) C   1 - H  14  
                ( 51.90%)   0.7204* C   1 s( 24.76%)p 3.04( 75.24%)
                                            0.0000  0.4976  0.3273  0.7193  0.3576
                ( 48.10%)   0.6936* H  14 s(100.00%)
                                            1.0000
     5. (1.98515) BD ( 1) C   2 - C   6  
                ( 49.70%)   0.7050* C   2 s( 25.35%)p 2.95( 74.65%)
                                            0.0000  0.5034 -0.3905 -0.6912 -0.3410
                ( 50.30%)   0.7092* C   6 s( 25.72%)p 2.89( 74.28%)
                                            0.0001  0.5071  0.3367  0.7183  0.3369
     6. (1.98592) BD ( 1) C   2 - C   7  
                ( 49.72%)   0.7051* C   2 s( 25.40%)p 2.94( 74.60%)
                                            0.0000  0.5040 -0.5390  0.4053  0.5396
                ( 50.28%)   0.7091* C   7 s( 25.15%)p 2.98( 74.85%)
                                            0.0001  0.5015  0.4959 -0.3810 -0.5979
     7. (1.98548) BD ( 1) C   2 - H  15  
                ( 51.19%)   0.7155* C   2 s( 24.32%)p 3.11( 75.68%)
                                            0.0000  0.4931  0.7068 -0.2561  0.4378
                ( 48.81%)   0.6987* H  15 s(100.00%)
                                            1.0000
     8. (1.98286) BD ( 1) C   3 - C   5  
                ( 50.02%)   0.7073* C   3 s( 26.10%)p 2.83( 73.90%)
                                            0.0001  0.5109 -0.2632 -0.5490 -0.6068
                ( 49.98%)   0.7070* C   5 s( 25.32%)p 2.95( 74.68%)
                                            0.0000  0.5032  0.2561  0.5349  0.6286
     9. (1.98726) BD ( 1) C   3 - C   7  
                ( 49.31%)   0.7022* C   3 s( 25.75%)p 2.88( 74.25%)
                                            0.0000  0.5074  0.8009 -0.1920  0.2535
                ( 50.69%)   0.7120* C   7 s( 25.45%)p 2.93( 74.55%)
                                            0.0000  0.5044 -0.7785  0.1715 -0.3318
    10. (1.98846) BD ( 1) C   3 - O   8  
                ( 41.09%)   0.6410* C   3 s( 22.09%)p 3.53( 77.91%)
                                            0.0000  0.4700  0.0057  0.8134 -0.3427
                ( 58.91%)   0.7675* O   8 s( 16.48%)p 5.07( 83.52%)
                                            0.0000  0.4060  0.0619 -0.8745  0.2582
    11. (1.98609) BD ( 1) C   3 - H  16  
                ( 51.33%)   0.7165* C   3 s( 26.06%)p 2.84( 73.94%)
                                            0.0000  0.5105 -0.5379 -0.0085  0.6708
                ( 48.67%)   0.6976* H  16 s(100.00%)
                                            1.0000
    12. (1.98431) BD ( 1) C   4 - C   5  
                ( 50.40%)   0.7099* C   4 s( 25.33%)p 2.95( 74.67%)
                                            0.0001  0.5033 -0.3663  0.7749 -0.1098
                ( 49.60%)   0.7043* C   5 s( 25.04%)p 2.99( 74.96%)
                                            0.0000  0.5004  0.3468 -0.7834  0.1247
    13. (1.98951) BD ( 1) C   4 - C   6  
                ( 49.92%)   0.7065* C   4 s( 25.05%)p 2.99( 74.95%)
                                            0.0000  0.5005  0.8571  0.0655 -0.1031
                ( 50.08%)   0.7077* C   6 s( 25.34%)p 2.95( 74.66%)
                                            0.0000  0.5034 -0.8573 -0.0043  0.1083
    14. (1.98991) BD ( 1) C   4 - H  17  
                ( 51.52%)   0.7178* C   4 s( 25.05%)p 2.99( 74.95%)
                                            0.0000  0.5005 -0.3193 -0.5581 -0.5797
                ( 48.48%)   0.6962* H  17 s(100.00%)
                                            1.0000
    15. (1.99070) BD ( 1) C   4 - H  18  
                ( 51.42%)   0.7171* C   4 s( 24.57%)p 3.07( 75.43%)
                                            0.0000  0.4957 -0.1711 -0.2894  0.8008
                ( 48.58%)   0.6970* H  18 s(100.00%)
                                            1.0000
    16. (1.97937) BD ( 1) C   5 - C   9  
                ( 50.31%)   0.7093* C   5 s( 25.40%)p 2.94( 74.60%)
                                            0.0000  0.5040 -0.8616 -0.0597 -0.0016
                ( 49.69%)   0.7049* C   9 s( 25.37%)p 2.94( 74.63%)
                                            0.0001  0.5037  0.8537  0.0792  0.1058
    17. (1.98183) BD ( 1) C   5 - H  19  
                ( 50.75%)   0.7124* C   5 s( 24.23%)p 3.13( 75.77%)
                                            0.0000  0.4923  0.2678  0.3108 -0.7677
                ( 49.25%)   0.7017* H  19 s(100.00%)
                                            1.0000
    18. (1.99139) BD ( 1) C   6 - H  20  
                ( 51.45%)   0.7173* C   6 s( 24.69%)p 3.05( 75.31%)
                                            0.0000  0.4969  0.1850 -0.0403 -0.8469
                ( 48.55%)   0.6968* H  20 s(100.00%)
                                            1.0000
    19. (1.99144) BD ( 1) C   6 - H  21  
                ( 51.44%)   0.7172* C   6 s( 24.26%)p 3.12( 75.74%)
                                            0.0000  0.4925  0.3428 -0.6946  0.3969
                ( 48.56%)   0.6968* H  21 s(100.00%)
                                            1.0000
    20. (1.98791) BD ( 1) C   7 - H  22  
                ( 51.93%)   0.7206* C   7 s( 25.50%)p 2.92( 74.50%)
                                            0.0000  0.5049  0.3738  0.7303  0.2682
                ( 48.07%)   0.6933* H  22 s(100.00%)
                                            1.0000
    21. (1.98924) BD ( 1) C   7 - H  23  
                ( 51.46%)   0.7174* C   7 s( 23.91%)p 3.18( 76.09%)
                                            0.0000  0.4890 -0.0915 -0.5404  0.6786
                ( 48.54%)   0.6967* H  23 s(100.00%)
                                            1.0000
    22. (1.98910) BD ( 1) O   8 - H  24  
                ( 59.51%)   0.7714* O   8 s( 17.01%)p 4.88( 82.99%)
                                            0.0000 -0.4124 -0.5560 -0.0178  0.7214
                ( 40.49%)   0.6364* H  24 s(100.00%)
                                           -1.0000
    23. (1.98940) BD ( 1) C   9 - C  10  
                ( 49.29%)   0.7021* C   9 s( 25.17%)p 2.97( 74.83%)
                                            0.0000  0.5017 -0.3491  0.7765 -0.1534
                ( 50.71%)   0.7121* C  10 s( 25.67%)p 2.89( 74.33%)
                                            0.0001  0.5067  0.3788 -0.7530  0.1810
    24. (1.99032) BD ( 1) C   9 - C  11  
                ( 48.97%)   0.6998* C   9 s( 25.27%)p 2.96( 74.73%)
                                            0.0000  0.5027 -0.3529 -0.3430  0.7107
                ( 51.03%)   0.7143* C  11 s( 25.88%)p 2.86( 74.12%)
                                            0.0001  0.5087  0.3930  0.3585 -0.6769
    25. (1.98389) BD ( 1) C   9 - H  25  
                ( 50.91%)   0.7135* C   9 s( 24.19%)p 3.13( 75.81%)
                                            0.0000  0.4918 -0.1576 -0.5227 -0.6783
                ( 49.09%)   0.7006* H  25 s(100.00%)
                                            1.0000
    26. (1.99505) BD ( 1) C  10 - H  26  
                ( 51.79%)   0.7196* C  10 s( 24.80%)p 3.03( 75.20%)
                                            0.0000  0.4980  0.3899  0.3673 -0.6820
                ( 48.21%)   0.6944* H  26 s(100.00%)
                                            1.0000
    27. (1.99461) BD ( 1) C  10 - H  27  
                ( 51.70%)   0.7191* C  10 s( 24.55%)p 3.07( 75.45%)
                                            0.0000  0.4955 -0.8374 -0.1332 -0.1887
                ( 48.30%)   0.6949* H  27 s(100.00%)
                                            1.0000
    28. (1.99560) BD ( 1) C  10 - H  28  
                ( 52.30%)   0.7232* C  10 s( 24.98%)p 3.00( 75.02%)
                                            0.0000  0.4998  0.0576  0.5295  0.6830
                ( 47.70%)   0.6906* H  28 s(100.00%)
                                            1.0000
    29. (1.99456) BD ( 1) C  11 - H  29  
                ( 51.85%)   0.7200* C  11 s( 24.88%)p 3.02( 75.12%)
                                            0.0000  0.4988  0.1297  0.4845  0.7068
                ( 48.15%)   0.6939* H  29 s(100.00%)
                                            1.0000
    30. (1.99487) BD ( 1) C  11 - H  30  
                ( 51.84%)   0.7200* C  11 s( 24.73%)p 3.04( 75.27%)
                                            0.0000  0.4973  0.3173 -0.7959  0.1364
                ( 48.16%)   0.6940* H  30 s(100.00%)
                                            1.0000
    31. (1.99414) BD ( 1) C  11 - H  31  
                ( 51.90%)   0.7204* C  11 s( 24.51%)p 3.08( 75.49%)
                                            0.0000  0.4951 -0.8533 -0.0571 -0.1536
                ( 48.10%)   0.6936* H  31 s(100.00%)
                                            1.0000
    32. (1.99997) CR ( 1) C   1           s(100.00%)
                                            1.0000  0.0000  0.0001  0.0000  0.0000
    33. (1.99997) CR ( 1) C   2           s(100.00%)
                                            1.0000  0.0000  0.0000  0.0000  0.0000
    34. (1.99989) CR ( 1) C   3           s(100.00%)
                                            1.0000  0.0000  0.0000  0.0001  0.0001
    35. (1.99996) CR ( 1) C   4           s(100.00%)
                                            1.0000  0.0000  0.0000 -0.0001  0.0000
    36. (1.99995) CR ( 1) C   5           s(100.00%)
                                            1.0000  0.0000  0.0000  0.0000  0.0000
    37. (1.99996) CR ( 1) C   6           s(100.00%)
                                            1.0000  0.0000  0.0000 -0.0001  0.0000
    38. (1.99996) CR ( 1) C   7           s(100.00%)
                                            1.0000  0.0000  0.0000  0.0000  0.0001
    39. (1.99999) CR ( 1) O   8           s(100.00%)
                                            1.0000  0.0000  0.0000  0.0000  0.0000
    40. (1.99996) CR ( 1) C   9           s(100.00%)
                                            1.0000  0.0000 -0.0001  0.0000  0.0000
    41. (1.99997) CR ( 1) C  10           s(100.00%)
                                            1.0000  0.0000 -0.0001  0.0001  0.0000
    42. (1.99997) CR ( 1) C  11           s(100.00%)
                                            1.0000  0.0000 -0.0001  0.0000  0.0000
    43. (1.99297) LP ( 1) O   8           s( 66.51%)p 0.50( 33.49%)
                                            0.0000  0.8155 -0.3153  0.4253  0.2337
    44. (1.97389) LP ( 2) O   8           s(  0.00%)p 1.00(100.00%)
                                            0.0000  0.0036  0.7665  0.2326  0.5986
    45. (0.01084) BD*( 1) C   1 - C   2  
                ( 48.84%)   0.6988* C   1 s( 25.88%)p 2.86( 74.12%)
                                           -0.0001 -0.5087  0.2909  0.5260 -0.6164
                ( 51.16%)  -0.7153* C   2 s( 24.94%)p 3.01( 75.06%)
                                            0.0000 -0.4994 -0.2397 -0.5407  0.6331
    46. (0.00483) BD*( 1) C   1 - H  12  
                ( 48.04%)   0.6931* C   1 s( 24.55%)p 3.07( 75.45%)
                                            0.0000 -0.4954 -0.6223  0.3993  0.4559
                ( 51.96%)  -0.7208* H  12 s(100.00%)
                                           -1.0000
    47. (0.00723) BD*( 1) C   1 - H  13  
                ( 48.55%)   0.6968* C   1 s( 24.81%)p 3.03( 75.19%)
                                            0.0000 -0.4981  0.6488 -0.2157  0.5333
                ( 51.45%)  -0.7173* H  13 s(100.00%)
                                           -1.0000
    48. (0.00545) BD*( 1) C   1 - H  14  
                ( 48.10%)   0.6936* C   1 s( 24.76%)p 3.04( 75.24%)
                                            0.0000 -0.4976 -0.3273 -0.7193 -0.3576
                ( 51.90%)  -0.7204* H  14 s(100.00%)
                                           -1.0000
    49. (0.01711) BD*( 1) C   2 - C   6  
                ( 50.30%)   0.7092* C   2 s( 25.35%)p 2.95( 74.65%)
                                            0.0000  0.5034 -0.3905 -0.6912 -0.3410
                ( 49.70%)  -0.7050* C   6 s( 25.72%)p 2.89( 74.28%)
                                            0.0001  0.5071  0.3367  0.7183  0.3369
    50. (0.01615) BD*( 1) C   2 - C   7  
                ( 50.28%)   0.7091* C   2 s( 25.40%)p 2.94( 74.60%)
                                            0.0000  0.5040 -0.5390  0.4053  0.5396
                ( 49.72%)  -0.7051* C   7 s( 25.15%)p 2.98( 74.85%)
                                            0.0001  0.5015  0.4959 -0.3810 -0.5979
    51. (0.00944) BD*( 1) C   2 - H  15  
                ( 48.81%)   0.6987* C   2 s( 24.32%)p 3.11( 75.68%)
                                            0.0000 -0.4931 -0.7068  0.2561 -0.4378
                ( 51.19%)  -0.7155* H  15 s(100.00%)
                                           -1.0000
    52. (0.03287) BD*( 1) C   3 - C   5  
                ( 49.98%)   0.7070* C   3 s( 26.10%)p 2.83( 73.90%)
                                           -0.0001 -0.5109  0.2632  0.5490  0.6068
                ( 50.02%)  -0.7073* C   5 s( 25.32%)p 2.95( 74.68%)
                                            0.0000 -0.5032 -0.2561 -0.5349 -0.6286
    53. (0.02896) BD*( 1) C   3 - C   7  
                ( 50.69%)   0.7120* C   3 s( 25.75%)p 2.88( 74.25%)
                                            0.0000  0.5074  0.8009 -0.1920  0.2535
                ( 49.31%)  -0.7022* C   7 s( 25.45%)p 2.93( 74.55%)
                                            0.0000  0.5044 -0.7785  0.1715 -0.3318
    54. (0.02226) BD*( 1) C   3 - O   8  
                ( 58.91%)   0.7675* C   3 s( 22.09%)p 3.53( 77.91%)
                                            0.0000  0.4700  0.0057  0.8134 -0.3427
                ( 41.09%)  -0.6410* O   8 s( 16.48%)p 5.07( 83.52%)
                                            0.0000  0.4060  0.0619 -0.8745  0.2582
    55. (0.01759) BD*( 1) C   3 - H  16  
                ( 48.67%)   0.6976* C   3 s( 26.06%)p 2.84( 73.94%)
                                            0.0000 -0.5105  0.5379  0.0085 -0.6708
                ( 51.33%)  -0.7165* H  16 s(100.00%)
                                           -1.0000
    56. (0.01549) BD*( 1) C   4 - C   5  
                ( 49.60%)   0.7043* C   4 s( 25.33%)p 2.95( 74.67%)
                                           -0.0001 -0.5033  0.3663 -0.7749  0.1098
                ( 50.40%)  -0.7099* C   5 s( 25.04%)p 2.99( 74.96%)
                                            0.0000 -0.5004 -0.3468  0.7834 -0.1247
    57. (0.01146) BD*( 1) C   4 - C   6  
                ( 50.08%)   0.7077* C   4 s( 25.05%)p 2.99( 74.95%)
                                            0.0000  0.5005  0.8571  0.0655 -0.1031
                ( 49.92%)  -0.7065* C   6 s( 25.34%)p 2.95( 74.66%)
                                            0.0000  0.5034 -0.8573 -0.0043  0.1083
    58. (0.00859) BD*( 1) C   4 - H  17  
                ( 48.48%)   0.6962* C   4 s( 25.05%)p 2.99( 74.95%)
                                            0.0000 -0.5005  0.3193  0.5581  0.5797
                ( 51.52%)  -0.7178* H  17 s(100.00%)
                                           -1.0000
    59. (0.00970) BD*( 1) C   4 - H  18  
                ( 48.58%)   0.6970* C   4 s( 24.57%)p 3.07( 75.43%)
                                            0.0000 -0.4957  0.1711  0.2894 -0.8008
                ( 51.42%)  -0.7171* H  18 s(100.00%)
                                           -1.0000
    60. (0.02246) BD*( 1) C   5 - C   9  
                ( 49.69%)   0.7049* C   5 s( 25.40%)p 2.94( 74.60%)
                                            0.0000 -0.5040  0.8616  0.0597  0.0016
                ( 50.31%)  -0.7093* C   9 s( 25.37%)p 2.94( 74.63%)
                                           -0.0001 -0.5037 -0.8537 -0.0792 -0.1058
    61. (0.01283) BD*( 1) C   5 - H  19  
                ( 49.25%)   0.7017* C   5 s( 24.23%)p 3.13( 75.77%)
                                            0.0000 -0.4923 -0.2678 -0.3108  0.7677
                ( 50.75%)  -0.7124* H  19 s(100.00%)
                                           -1.0000
    62. (0.00876) BD*( 1) C   6 - H  20  
                ( 48.55%)   0.6968* C   6 s( 24.69%)p 3.05( 75.31%)
                                            0.0000 -0.4969 -0.1850  0.0403  0.8469
                ( 51.45%)  -0.7173* H  20 s(100.00%)
                                           -1.0000
    63. (0.00683) BD*( 1) C   6 - H  21  
                ( 48.56%)   0.6968* C   6 s( 24.26%)p 3.12( 75.74%)
                                            0.0000 -0.4925 -0.3428  0.6946 -0.3969
                ( 51.44%)  -0.7172* H  21 s(100.00%)
                                           -1.0000
    64. (0.00868) BD*( 1) C   7 - H  22  
                ( 48.07%)   0.6933* C   7 s( 25.50%)p 2.92( 74.50%)
                                            0.0000 -0.5049 -0.3738 -0.7303 -0.2682
                ( 51.93%)  -0.7206* H  22 s(100.00%)
                                           -1.0000
    65. (0.00732) BD*( 1) C   7 - H  23  
                ( 48.54%)   0.6967* C   7 s( 23.91%)p 3.18( 76.09%)
                                            0.0000 -0.4890  0.0915  0.5404 -0.6786
                ( 51.46%)  -0.7174* H  23 s(100.00%)
                                           -1.0000
    66. (0.01066) BD*( 1) O   8 - H  24  
                ( 40.49%)   0.6364* O   8 s( 17.01%)p 4.88( 82.99%)
                                            0.0000  0.4124  0.5560  0.0178 -0.7214
                ( 59.51%)  -0.7714* H  24 s(100.00%)
                                            1.0000
    67. (0.01036) BD*( 1) C   9 - C  10  
                ( 50.71%)   0.7121* C   9 s( 25.17%)p 2.97( 74.83%)
                                            0.0000  0.5017 -0.3491  0.7765 -0.1534
                ( 49.29%)  -0.7021* C  10 s( 25.67%)p 2.89( 74.33%)
                                            0.0001  0.5067  0.3788 -0.7530  0.1810
    68. (0.01109) BD*( 1) C   9 - C  11  
                ( 51.03%)   0.7143* C   9 s( 25.27%)p 2.96( 74.73%)
                                            0.0000  0.5027 -0.3529 -0.3430  0.7107
                ( 48.97%)  -0.6998* C  11 s( 25.88%)p 2.86( 74.12%)
                                            0.0001  0.5087  0.3930  0.3585 -0.6769
    69. (0.01068) BD*( 1) C   9 - H  25  
                ( 49.09%)   0.7006* C   9 s( 24.19%)p 3.13( 75.81%)
                                            0.0000 -0.4918  0.1576  0.5227  0.6783
                ( 50.91%)  -0.7135* H  25 s(100.00%)
                                           -1.0000
    70. (0.00533) BD*( 1) C  10 - H  26  
                ( 48.21%)   0.6944* C  10 s( 24.80%)p 3.03( 75.20%)
                                            0.0000 -0.4980 -0.3899 -0.3673  0.6820
                ( 51.79%)  -0.7196* H  26 s(100.00%)
                                           -1.0000
    71. (0.00489) BD*( 1) C  10 - H  27  
                ( 48.30%)   0.6949* C  10 s( 24.55%)p 3.07( 75.45%)
                                            0.0000 -0.4955  0.8374  0.1332  0.1887
                ( 51.70%)  -0.7191* H  27 s(100.00%)
                                           -1.0000
    72. (0.00620) BD*( 1) C  10 - H  28  
[...]
   10      20.4864        4.9359      15.5504         9.9195      10.5669
   11       1.1286        0.4673       0.6613        -0.1645       1.2931
   17      -0.7992       -1.1386       0.3394        -1.8155       1.0163
   20      -0.8781       -1.6521       0.7740        -1.9526       1.0745
   22      23.8175        9.7962      14.0213         9.3167      14.5008
   28      -0.2667       -1.0676       0.8009        -0.9923       0.7256
   39     271.1752       -0.0061     271.1813        -0.0026     271.1778
   43      32.2933        1.2338      31.0595        -5.1650      37.4583
   44      -2.5688      -41.2874      38.7186       -42.4863      39.9176
 Sum      343.6011      -29.2651     372.8662       -34.9570     378.5581

 Contributions to Isotropic shielding for atom    9 (   212.4479 ppm):
                         Standard Origin              Atomic Origin
 NLMO      Total    Paramagnetic  Diamagnetic   Paramagnetic  Diamagnetic
   11      -0.1062       -0.4338       0.3276        -1.0457       0.9395
   14      -0.1388       -0.5619       0.4232        -1.0548       0.9160
   16       5.3965       -9.7519      15.1484        -2.2535       7.6500
   17       0.3929       -0.0793       0.4722        -0.6486       1.0415
   23      -1.3098       -5.8889       4.5791        -8.9396       7.6298
   24      -1.5302       -5.9135       4.3834        -9.0288       7.4986
   25       5.2989       -1.1631       6.4620        -5.5230      10.8219
   26       0.6393       -0.6562       1.2955        -0.4052       1.0445
   27       0.6225       -0.2498       0.8722        -0.4076       1.0301
   28       0.9351       -0.3458       1.2809        -0.1189       1.0540
   29       1.0079       -0.2771       1.2850        -0.0227       1.0306
   30       0.6440       -0.5375       1.1814        -0.3604       1.0044
   31       0.6080       -0.2673       0.8754        -0.4234       1.0315
   40     199.9268       -0.0021     199.9289         0.0027     199.9241
 Sum      212.3869      -26.1283     238.5152       -30.2295     242.6164

 Contributions to Isotropic shielding for atom   10 (   221.3200 ppm):
                         Standard Origin              Atomic Origin
 NLMO      Total    Paramagnetic  Diamagnetic   Paramagnetic  Diamagnetic
   10       0.0352       -0.1692       0.2044        -1.1189       1.1541
   23       4.0758      -10.3186      14.3944        -3.7587       7.8345
   24      -0.4743       -0.0081      -0.4662        -1.1635       0.6892
   25       0.2995        0.0675       0.2320        -0.7191       1.0187
   26       6.0553       -4.9841      11.0394        -5.0477      11.1030
   27       4.9076        2.7961       2.1116        -6.1430      11.0507
   28       6.3270       -4.9176      11.2446        -4.9869      11.3139
   31      -0.1071       -0.6669       0.5599        -1.0299       0.9228
   41     200.0743       -0.0031     200.0774         0.0020     200.0723
 Sum      221.1934      -18.2040     239.3975       -23.9657     245.1591

 Contributions to Isotropic shielding for atom   11 (   224.4507 ppm):
                         Standard Origin              Atomic Origin
 NLMO      Total    Paramagnetic  Diamagnetic   Paramagnetic  Diamagnetic
   23      -0.4397        0.0487      -0.4884        -1.1183       0.6787
   24       4.5748       -9.9125      14.4874        -3.4316       8.0064
   25       0.3044        0.0323       0.2721        -0.7054       1.0098
   29       6.7784       -4.6940      11.4723        -4.3600      11.1383
   30       6.5204       -3.6788      10.1991        -4.5857      11.1061
   31       6.0078        3.8105       2.1973        -5.1072      11.1150
   42     200.0736       -0.0030     200.0767         0.0019     200.0718
 Sum      223.8197      -14.3968     238.2165       -19.3064     243.1261

 Contributions to Isotropic shielding for atom   12 (    32.4337 ppm):
                         Standard Origin              Atomic Origin
 NLMO      Total    Paramagnetic  Diamagnetic   Paramagnetic  Diamagnetic
    1       1.2078        0.5116       0.6962         0.1863       1.0216
    2      26.2959        0.0562      26.2397         0.4479      25.8480
    3       2.0282        0.8044       1.2238         0.1832       1.8450
    4       1.8592        2.1699      -0.3107         0.0080       1.8512
 Sum       31.3911        3.5421      27.8490         0.8253      30.5657

 Contributions to Isotropic shielding for atom   13 (    33.2083 ppm):
                         Standard Origin              Atomic Origin
 NLMO      Total    Paramagnetic  Diamagnetic   Paramagnetic  Diamagnetic
    1       1.6798       -1.1944       2.8741         0.7843       0.8955
    2       2.0025        1.2867       0.7158         0.1410       1.8615
    3      26.5201        0.3869      26.1333         0.3662      26.1540
    4       1.9950        0.7676       1.2273         0.1757       1.8192
   10      -0.0692       -0.0333      -0.0359        -1.0553       0.9861
 Sum       32.1282        1.2135      30.9146         0.4118      31.7164

 Contributions to Isotropic shielding for atom   14 (    32.7070 ppm):
                         Standard Origin              Atomic Origin
 NLMO      Total    Paramagnetic  Diamagnetic   Paramagnetic  Diamagnetic
    1       1.3293        0.0812       1.2481         0.3157       1.0136
    2       1.9196        2.3715      -0.4520         0.0753       1.8443
    3       2.0621        0.4407       1.6214         0.2447       1.8174
    4      26.3575        0.2035      26.1540         0.4750      25.8825
    6      -0.1266        0.1791      -0.3057        -1.0561       0.9294
 Sum       31.5419        3.2761      28.2658         0.0546      31.4873

 Contributions to Isotropic shielding for atom   15 (    32.3701 ppm):
                         Standard Origin              Atomic Origin
 NLMO      Total    Paramagnetic  Diamagnetic   Paramagnetic  Diamagnetic
    1       0.8129        2.2959      -1.4830        -0.2386       1.0515
    2       0.1849       -0.3237       0.5086        -0.8488       1.0337
    5       1.1759        1.4796      -0.3037         0.1454       1.0305
    6       1.3025        1.1421       0.1603         0.2625       1.0400
    7      26.5059       -0.4252      26.9311         0.4998      26.0060
   19      -0.1235       -0.2642       0.1407        -1.2966       1.1732
   21       0.1348        0.1627      -0.0280        -0.9364       1.0712
 Sum       29.9934        4.0673      25.9261        -2.4126      32.4060

 Contributions to Isotropic shielding for atom   16 (    31.4802 ppm):
                         Standard Origin              Atomic Origin
 NLMO      Total    Paramagnetic  Diamagnetic   Paramagnetic  Diamagnetic
    8       1.0136        0.0932       0.9205         0.0460       0.9676
    9       0.6774        0.6088       0.0686        -0.4266       1.1040
   10       1.0083        0.8232       0.1852        -1.1032       2.1116
   11      26.3316        0.3676      25.9640         0.7394      25.5922
   16      -0.1699       -0.1155      -0.0544        -1.0679       0.8980
   21      -0.0085       -0.7733       0.7649        -1.1761       1.1677
   28      -0.1966       -1.0329       0.8362        -0.8235       0.6268
   29      -0.3710       -1.5488       1.1778        -0.9033       0.5323
 Sum       28.2849       -1.5778      29.8627        -4.7152      33.0001

 Contributions to Isotropic shielding for atom   17 (    32.6067 ppm):
                         Standard Origin              Atomic Origin
 NLMO      Total    Paramagnetic  Diamagnetic   Paramagnetic  Diamagnetic
   12       1.3635        0.3994       0.9641         0.4774       0.8862
   13       1.0561        1.3834      -0.3274         0.0580       0.9981
   14      26.3917        0.0583      26.3334         0.4576      25.9340
   15       2.0981        1.4105       0.6876         0.3561       1.7420
   16      -0.0566        0.1281      -0.1847        -1.0467       0.9901
   18       0.0732       -0.5469       0.6201        -1.0464       1.1196
 Sum       30.9260        2.8328      28.0932        -0.7441      31.6700

 Contributions to Isotropic shielding for atom   18 (    32.7540 ppm):
                         Standard Origin              Atomic Origin
 NLMO      Total    Paramagnetic  Diamagnetic   Paramagnetic  Diamagnetic
   12       1.3731       -0.0269       1.4000         0.4935       0.8797
   13       1.1003        0.9938       0.1065         0.1574       0.9429
   14       2.0283        1.5258       0.5026         0.2616       1.7667
   15      26.4204        0.1050      26.3154         0.4021      26.0183
   19       0.0349       -0.7133       0.7482        -1.0436       1.0786
   24       0.0129       -0.6118       0.6247        -0.9978       1.0108
   30      -0.3487       -1.4730       1.1242        -0.9115       0.5627
 Sum       30.6214       -0.2002      30.8216        -1.6383      32.2597

 Contributions to Isotropic shielding for atom   19 (    33.1557 ppm):
                         Standard Origin              Atomic Origin
 NLMO      Total    Paramagnetic  Diamagnetic   Paramagnetic  Diamagnetic
    3      -0.3827       -1.0000       0.6173        -0.6356       0.2529
    8       1.4365        0.6178       0.8186         0.5651       0.8714
   10      -0.0668       -0.4501       0.3833        -1.3673       1.3005
   12       1.1680        0.7535       0.4145         0.2378       0.9302
   16       1.1476        1.1401       0.0075        -0.0288       1.1764
   17      26.5729        0.0940      26.4789         0.4004      26.1725
   26      -0.1477       -1.3007       1.1530        -1.0242       0.8765
 Sum       29.7278       -0.1454      29.8732        -1.8527      31.5805

 Contributions to Isotropic shielding for atom   20 (    32.6546 ppm):
                         Standard Origin              Atomic Origin
 NLMO      Total    Paramagnetic  Diamagnetic   Paramagnetic  Diamagnetic
    1      -0.1932       -0.3391       0.1460        -1.3863       1.1931
    5       1.2013        0.7591       0.4423         0.2966       0.9048
   13       1.3400        0.2841       1.0559         0.3358       1.0042
   14      -0.0096       -0.0533       0.0437        -1.0763       1.0666
   18      26.4397        0.0350      26.4047         0.4770      25.9627
   19       2.0006        2.1578      -0.1572         0.2125       1.7881
 Sum       30.7788        2.8435      27.9353        -1.1407      31.9195

 Contributions to Isotropic shielding for atom   21 (    32.1741 ppm):
                         Standard Origin              Atomic Origin
 NLMO      Total    Paramagnetic  Diamagnetic   Paramagnetic  Diamagnetic
    5       1.0419        1.1923      -0.1504         0.0024       1.0395
    7      -0.1159       -0.4131       0.2972        -1.2224       1.1065
   13       1.1883        0.7734       0.4149         0.0803       1.1079
   15       0.0124        0.1109      -0.0984        -1.1076       1.1201
   18       1.9707        1.9159       0.0548         0.1677       1.8031
   19      26.4603       -0.1631      26.6234         0.4709      25.9895
 Sum       30.5578        3.4163      27.1415        -1.6088      32.1666

 Contributions to Isotropic shielding for atom   22 (    32.2983 ppm):
                         Standard Origin              Atomic Origin
 NLMO      Total    Paramagnetic  Diamagnetic   Paramagnetic  Diamagnetic
    4      -0.1286       -1.1594       1.0308        -0.9997       0.8712
    6       1.0088        1.3442      -0.3354         0.0865       0.9224
    9       1.3224        0.4312       0.8913         0.3948       0.9276
   10      -0.2103        0.1227      -0.3330        -1.7063       1.4959
   20      26.1695        0.1100      26.0595         0.5040      25.6655
   21       2.0702        1.6287       0.4415         0.3568       1.7134
 Sum       30.2321        2.4773      27.7548        -1.3640      31.5960

 Contributions to Isotropic shielding for atom   23 (    32.3309 ppm):
                         Standard Origin              Atomic Origin
 NLMO      Total    Paramagnetic  Diamagnetic   Paramagnetic  Diamagnetic
    6       1.1007        0.9173       0.1834         0.0386       1.0622
    9       1.4991        0.1888       1.3103         0.5301       0.9690
   11      -0.0374       -0.1428       0.1054        -1.2064       1.1690
   20       1.8777        1.6207       0.2569         0.0357       1.8420
   21      26.4178        0.0648      26.3530         0.4264      25.9914
 Sum       30.8579        2.6489      28.2090        -0.1757      31.0335

 Contributions to Isotropic shielding for atom   24 (    35.1797 ppm):
                         Standard Origin              Atomic Origin
 NLMO      Total    Paramagnetic  Diamagnetic   Paramagnetic  Diamagnetic
   10       2.1557        1.2869       0.8688         1.5592       0.5965
   22      22.9394       -0.3309      23.2703        -0.2393      23.1787
   43       3.7362        1.6524       2.0838         1.7559       1.9803
   44       5.2119        2.1222       3.0896         2.0546       3.1573
 Sum       34.0432        4.7307      29.3126         5.1304      28.9129

 Contributions to Isotropic shielding for atom   25 (    32.4830 ppm):
                         Standard Origin              Atomic Origin
 NLMO      Total    Paramagnetic  Diamagnetic   Paramagnetic  Diamagnetic
   16       1.6590        0.0211       1.6379         0.6154       1.0436
   23       0.9253        1.8127      -0.8875        -0.1108       1.0360
   24       0.8789        1.7932      -0.9143        -0.1619       1.0409
   25      26.5594       -0.1229      26.6822         0.4351      26.1243
   27       0.2129       -0.4846       0.6976        -0.7892       1.0021
 Sum       30.2355        3.0195      27.2160        -0.0113      30.2468

 Contributions to Isotropic shielding for atom   26 (    32.4487 ppm):
                         Standard Origin              Atomic Origin
 NLMO      Total    Paramagnetic  Diamagnetic   Paramagnetic  Diamagnetic
   23       1.5509       -0.7467       2.2976         0.5639       0.9870
   26      26.3403        0.3052      26.0351         0.4007      25.9396
   27       1.9043        2.0526      -0.1483         0.0691       1.8352
   28       2.0969        0.5182       1.5787         0.2455       1.8514
 Sum       31.8924        2.1293      29.7631         1.2792      30.6132

 Contributions to Isotropic shielding for atom   27 (    32.4578 ppm):
                         Standard Origin              Atomic Origin
 NLMO      Total    Paramagnetic  Diamagnetic   Paramagnetic  Diamagnetic
   23       1.1573        0.6588       0.4985         0.1635       0.9937
   24      -0.1534        0.6307      -0.7841        -1.0871       0.9337
   26       1.9827        1.6880       0.2947         0.1317       1.8510
   27      26.4328        0.0033      26.4295         0.4461      25.9867
   28       1.9929        1.6960       0.2969         0.1108       1.8821
 Sum       31.4123        4.6768      26.7355        -0.2350      31.6473

 Contributions to Isotropic shielding for atom   28 (    32.1083 ppm):
                         Standard Origin              Atomic Origin
 NLMO      Total    Paramagnetic  Diamagnetic   Paramagnetic  Diamagnetic
    8      -0.0914        0.0821      -0.1735        -1.0544       0.9630
   10       0.0519       -0.1151       0.1670        -1.2296       1.2815
   23       1.4777       -0.7865       2.2642         0.5721       0.9057
   24      -0.1370        0.1825      -0.3195        -1.0471       0.9101
   26       2.0545        0.4968       1.5577         0.2444       1.8101
   27       1.8818        2.0325      -0.1507         0.0372       1.8446
   28      26.0823        0.3014      25.7809         0.4117      25.6706
   43      -0.3320        0.0592      -0.3912         0.6836      -1.0156
 Sum       30.9878        2.2529      28.7350        -1.3821      32.3699

 Contributions to Isotropic shielding for atom   29 (    32.6787 ppm):
                         Standard Origin              Atomic Origin
 NLMO      Total    Paramagnetic  Diamagnetic   Paramagnetic  Diamagnetic
    8      -0.0859        0.0898      -0.1757        -1.0178       0.9319
   24       1.5429       -0.8447       2.3877         0.6073       0.9356
   29      26.3125        0.2823      26.0302         0.3819      25.9306
   30       2.0939        0.6461       1.4478         0.2783       1.8156
   31       1.9597        2.0359      -0.0762         0.1108       1.8489
 Sum       31.8232        2.2093      29.6139         0.3605      31.4626

 Contributions to Isotropic shielding for atom   30 (    32.6264 ppm):
                         Standard Origin              Atomic Origin
 NLMO      Total    Paramagnetic  Diamagnetic   Paramagnetic  Diamagnetic
   12      -0.0671        0.1433      -0.2104        -1.0394       0.9723
   24       1.4925       -0.6727       2.1652         0.4758       1.0167
   29       2.0851        0.5587       1.5264         0.2461       1.8390
   30      26.3287        0.2196      26.1091         0.3821      25.9467
   31       1.9434        2.1710      -0.2276         0.0677       1.8757
 Sum       31.7826        2.4199      29.3627         0.1322      31.6504

 Contributions to Isotropic shielding for atom   31 (    32.5392 ppm):
                         Standard Origin              Atomic Origin
 NLMO      Total    Paramagnetic  Diamagnetic   Paramagnetic  Diamagnetic
   23      -0.1751        0.6528      -0.8280        -1.1621       0.9870
   24       1.2306        0.6903       0.5403         0.1942       1.0364
   29       2.0008        1.6220       0.3788         0.1331       1.8677
   30       2.0097        1.8709       0.1388         0.1420       1.8677
   31      26.2837       -0.0482      26.3319         0.3967      25.8870
 Sum       31.3497        4.7878      26.5618        -0.2961      31.6458
 
 1\1\GINC-COMPUTE-6-32\SP\RHF\STO-3G\C10H20O1\YTSAI.IQUIR\03-Aug-2021\0
 \\# rhf/STO-3G nmr pop=nbo\\comment\\0,1\C,0,0.820696272,-0.995729901,
 -2.761507453\C,0,-0.557580374,-0.957126461,-2.095664675\C,0,0.12663708
 5,-1.043612226,0.398939217\C,0,-1.075786276,0.989699976,-0.485288942\C
 ,0,0.148227087,0.498680514,0.30030775\C,0,-1.058999901,0.488750848,-1.
 931850582\C,0,-0.588601521,-1.734905084,-0.772103731\O,0,1.458196114,-
 1.548256402,0.503899288\C,0,0.286801583,1.231357773,1.668964756\C,0,1.
 56972245,0.842285139,2.409474799\C,0,-0.91669662,1.064071677,2.6021614
 63\H,0,0.762245201,-0.591876839,-3.778408129\H,0,1.561124199,-0.402866
 4,-2.218167617\H,0,1.190589838,-2.02363708,-2.835574082\H,0,-1.2400619
 47,-1.467909251,-2.788749415\H,0,-0.378596054,-1.363263166,1.315342045
 \H,0,-1.119593437,2.085327901,-0.49044813\H,0,-1.997554064,0.641097583
 ,-0.003202373\H,0,1.039667465,0.791519953,-0.272902858\H,0,-0.45604801
 2,1.171765678,-2.54335402\H,0,-2.080148012,0.56259604,-2.327387731\H,0
 ,-0.188884653,-2.74531817,-0.922343085\H,0,-1.644677529,-1.857926958,-
 0.495049246\H,0,1.949394472,-1.285146979,-0.29107052\H,0,0.367415295,2
 .304672434,1.44660122\H,0,2.444207692,0.942933327,1.758381632\H,0,1.72
 550846,1.496055475,3.274764576\H,0,1.529028149,-0.186906709,2.77973729
 2\H,0,-1.069500745,0.021071319,2.893736432\H,0,-1.837765014,1.43010088
 7,2.139547843\H,0,-0.768967203,1.6424951,3.521214275\\Version=EM64L-G0
 9RevC.01\State=1-A\HF=-459.6090644\RMSD=9.506e-09\Dipole=-0.2589038,0.
 3190299,-0.4648948\Quadrupole=0.3136768,-0.6469243,0.3332474,1.5352964
 ,-1.7178247,1.33399\PG=C01 [X(C10H20O1)]\\@


 Boundary, n.  In political geography, an imaginary
 line between two nations, separating the imaginary
 rights of one from the imaginary rights of another.
                               -- Ambrose Bierce
 Job cpu time:  0 days  0 hours  0 minutes 23.4 seconds.
 File lengths (MBytes):  RWF=      5 Int=      0 D2E=      0 Chk=      1 Scr=      1
 Normal termination of Gaussian 09 at Tue Aug  3 16:34:15 2021.
