 Entering Gaussian System, Link 0=g09
 Input=/home/ytsai.iquir/menthol/01_menthol_M0034_MMFF_NMR_rhf_STO-3G_nbo.gjc
 Output=/home/ytsai.iquir/menthol/01_menthol_M0034_MMFF_NMR_rhf_STO-3G_nbo.log
 Initial command:
 /share/apps/Gaussian09/EM64T.SSE4.2-enabled/g09/l1.exe /tmp/Gau-11694.inp -scrdir=/tmp/
 Entering Link 1 = /share/apps/Gaussian09/EM64T.SSE4.2-enabled/g09/l1.exe PID=     11695.
  
 Copyright (c) 1988,1990,1992,1993,1995,1998,2003,2009,2011,
            Gaussian, Inc.  All Rights Reserved.
  
 This is part of the Gaussian(R) 09 program.  It is based on
 the Gaussian(R) 03 system (copyright 2003, Gaussian, Inc.),
 the Gaussian(R) 98 system (copyright 1998, Gaussian, Inc.),
 the Gaussian(R) 94 system (copyright 1995, Gaussian, Inc.),
 the Gaussian 92(TM) system (copyright 1992, Gaussian, Inc.),
 the Gaussian 90(TM) system (copyright 1990, Gaussian, Inc.),
 the Gaussian 88(TM) system (copyright 1988, Gaussian, Inc.),
 the Gaussian 86(TM) system (copyright 1986, Carnegie Mellon
 University), and the Gaussian 82(TM) system (copyright 1983,
 Carnegie Mellon University). Gaussian is a federally registered
 trademark of Gaussian, Inc.
  
 This software contains proprietary and confidential information,
 including trade secrets, belonging to Gaussian, Inc.
  
 This software is provided under written license and may be
 used, copied, transmitted, or stored only in accord with that
 written license.
  
 The following legend is applicable only to US Government
 contracts under FAR:
  
                    RESTRICTED RIGHTS LEGEND
  
 Use, reproduction and disclosure by the US Government is
 subject to restrictions as set forth in subparagraphs (a)
 and (c) of the Commercial Computer Software - Restricted
 Rights clause in FAR 52.227-19.
  
 Gaussian, Inc.
 340 Quinnipiac St., Bldg. 40, Wallingford CT 06492
  
  
 ---------------------------------------------------------------
 Warning -- This program may not be used in any manner that
 competes with the business of Gaussian, Inc. or will provide
 assistance to any competitor of Gaussian, Inc.  The licensee
 of this program is prohibited from giving any competitor of
 Gaussian, Inc. access to this program.  By using this program,
 the user acknowledges that Gaussian, Inc. is engaged in the
 business of creating and licensing software in the field of
 computational chemistry and represents and warrants to the
 licensee that it is not a competitor of Gaussian, Inc. and that
 it will not use this program in any manner prohibited above.
 ---------------------------------------------------------------
  

 Cite this work as:
 Gaussian 09, Revision C.01,
 M. J. Frisch, G. W. Trucks, H. B. Schlegel, G. E. Scuseria, 
 M. A. Robb, J. R. Cheeseman, G. Scalmani, V. Barone, B. Mennucci, 
 G. A. Petersson, H. Nakatsuji, M. Caricato, X. Li, H. P. Hratchian, 
 A. F. Izmaylov, J. Bloino, G. Zheng, J. L. Sonnenberg, M. Hada, 
 M. Ehara, K. Toyota, R. Fukuda, J. Hasegawa, M. Ishida, T. Nakajima, 
 Y. Honda, O. Kitao, H. Nakai, T. Vreven, J. A. Montgomery, Jr., 
 J. E. Peralta, F. Ogliaro, M. Bearpark, J. J. Heyd, E. Brothers, 
 K. N. Kudin, V. N. Staroverov, T. Keith, R. Kobayashi, J. Normand, 
 K. Raghavachari, A. Rendell, J. C. Burant, S. S. Iyengar, J. Tomasi, 
 M. Cossi, N. Rega, J. M. Millam, M. Klene, J. E. Knox, J. B. Cross, 
 V. Bakken, C. Adamo, J. Jaramillo, R. Gomperts, R. E. Stratmann, 
 O. Yazyev, A. J. Austin, R. Cammi, C. Pomelli, J. W. Ochterski, 
 R. L. Martin, K. Morokuma, V. G. Zakrzewski, G. A. Voth, 
 P. Salvador, J. J. Dannenberg, S. Dapprich, A. D. Daniels, 
 O. Farkas, J. B. Foresman, J. V. Ortiz, J. Cioslowski, 
 and D. J. Fox, Gaussian, Inc., Wallingford CT, 2010.
 
 ******************************************
 Gaussian 09:  EM64L-G09RevC.01 23-Sep-2011
                24-May-2020 
 ******************************************
 %nprocshared=4
 Will use up to    4 processors via shared memory.
 ------------------------
 # rhf/STO-3G nmr pop=nbo
 ------------------------
 1/38=1/1;
 2/12=2,17=6,18=5,40=1/2;
 3/6=3,11=1,16=1,25=1,30=1,116=1/1,2,8,3;
 4//1;
 5/5=2,38=5/2;
 8/6=1,10=90,11=11/1;
 10/13=100,45=16/2;
 6/7=2,8=2,9=2,10=2,28=1,64=1/1,7;
 99/9=1/99;
 -------
 comment
 -------
 Charge =  0 Multiplicity = 1
 Symbolic Z-Matrix:
 6                     2.9457    0.56646  -1.73194 
 6                     1.5929   -0.13432  -1.59691 
 6                     0.26472  -1.39776   0.15221 
 6                     0.13128   1.15909   0.04763 
 6                    -0.24839  -0.11124   0.84227 
 6                     0.44778   0.87787  -1.41959 
 6                     1.64236  -1.17292  -0.46601 
 8                     0.34061  -2.45875   1.10215 
 6                    -1.76015  -0.21817   1.20473 
 6                    -2.69857  -0.14538  -0.00331 
 6                    -2.16644   0.84327   2.23501 
 1                     3.18458   1.15038  -0.8368 
 1                     3.74702  -0.16419  -1.88534 
 1                     2.9467    1.24727  -2.58973 
 1                     1.41106  -0.66479  -2.54126 
 1                    -0.42345  -1.72919  -0.63162 
 1                     1.02188   1.60371   0.51143 
 1                    -0.64624   1.92635   0.11171 
 1                     0.27491  -0.03822   1.80781 
 1                     0.67809   1.81659  -1.93723 
 1                    -0.45369   0.48083  -1.90334 
 1                     2.34125  -0.8617    0.32245 
 1                     2.04576  -2.11968  -0.84715 
 1                     0.98444  -2.20424   1.78496 
 1                    -1.92125  -1.19308   1.68394 
 1                    -2.64091   0.82429  -0.50728 
 1                    -2.47543  -0.92492  -0.73667 
 1                    -3.73796  -0.28811   0.31311 
 1                    -2.1023    1.85715   1.82885 
 1                    -1.52696   0.79027   3.12235 
 1                    -3.19926   0.68314   2.56356 
 
                          Input orientation:                          
 ---------------------------------------------------------------------
 Center     Atomic      Atomic             Coordinates (Angstroms)
 Number     Number       Type             X           Y           Z
 ---------------------------------------------------------------------
      1          6           0        2.945703    0.566456   -1.731942
      2          6           0        1.592898   -0.134322   -1.596905
      3          6           0        0.264724   -1.397757    0.152208
      4          6           0        0.131278    1.159090    0.047632
      5          6           0       -0.248392   -0.111236    0.842274
      6          6           0        0.447778    0.877869   -1.419585
      7          6           0        1.642357   -1.172924   -0.466007
      8          8           0        0.340613   -2.458748    1.102151
      9          6           0       -1.760149   -0.218170    1.204725
     10          6           0       -2.698574   -0.145377   -0.003305
     11          6           0       -2.166444    0.843269    2.235013
     12          1           0        3.184575    1.150376   -0.836802
     13          1           0        3.747018   -0.164187   -1.885340
     14          1           0        2.946697    1.247274   -2.589732
     15          1           0        1.411063   -0.664794   -2.541257
     16          1           0       -0.423452   -1.729195   -0.631617
     17          1           0        1.021877    1.603707    0.511426
     18          1           0       -0.646244    1.926348    0.111707
     19          1           0        0.274914   -0.038222    1.807805
     20          1           0        0.678088    1.816586   -1.937227
     21          1           0       -0.453691    0.480831   -1.903341
     22          1           0        2.341246   -0.861701    0.322453
     23          1           0        2.045763   -2.119679   -0.847153
     24          1           0        0.984437   -2.204235    1.784961
     25          1           0       -1.921251   -1.193083    1.683940
     26          1           0       -2.640911    0.824291   -0.507284
     27          1           0       -2.475435   -0.924920   -0.736670
     28          1           0       -3.737958   -0.288108    0.313110
     29          1           0       -2.102300    1.857148    1.828850
     30          1           0       -1.526964    0.790272    3.122354
     31          1           0       -3.199265    0.683141    2.563559
 ---------------------------------------------------------------------
                    Distance matrix (angstroms):
                    1          2          3          4          5
     1  C    0.000000
     2  C    1.529512   0.000000
     3  C    3.820445   2.533715   0.000000
     4  C    3.382172   2.552205   2.562462   0.000000
     5  C    4.157896   3.056220   1.547454   1.545747   0.000000
     6  C    2.536567   1.538595   2.771735   1.527083   2.564954
     7  C    2.515303   1.536253   1.526634   2.825859   2.532531
     8  O    4.895961   3.775723   1.426132   3.774200   2.434190
     9  C    5.602205   4.370251   2.568916   2.610212   1.558273
    10  C    5.945819   4.577818   3.220835   3.116455   2.592212
    11  C    6.476682   5.456366   3.907793   3.188088   2.555332
    12  H    1.095124   2.182118   3.999582   3.178825   4.024454
    13  H    1.095206   2.173550   4.218965   4.308250   4.837973
    14  H    1.095134   2.174232   4.659121   3.858763   4.881886
    15  H    2.127461   1.098301   3.017629   3.415663   3.809003
    16  H    4.222787   2.746101   1.094449   3.018492   2.195630
    17  H    3.132043   2.791392   3.116264   1.098160   2.159646
    18  H    4.260333   3.489910   3.446908   1.094226   2.200855
    19  H    4.475328   3.652173   2.142297   2.133635   1.100650
    20  H    2.597508   2.181454   3.855984   2.161242   3.507205
    21  H    3.404789   2.158899   2.875847   2.146746   2.816219
    22  H    2.574012   2.184729   2.151344   3.007172   2.745840
    23  H    2.967838   2.169990   2.166101   3.900798   3.485851
    24  H    4.887934   4.011456   1.958130   3.880483   2.605604
    25  H    6.200925   4.922821   2.677047   3.524642   2.162696
    26  H    5.725079   4.475640   3.716872   2.846937   2.901837
    27  H    5.709948   4.232775   2.919272   3.428291   2.848660
    28  H    7.041579   5.664789   4.156762   4.139546   3.533888
    29  H    6.310900   5.418140   4.359854   2.940900   2.878339
    30  H    6.604471   5.732349   4.101144   3.512792   2.765181
    31  H    7.498371   6.398635   4.705737   4.201063   3.507350
                    6          7          8          9         10
     6  C    0.000000
     7  C    2.557750   0.000000
     8  O    4.183737   2.409772   0.000000
     9  C    3.600452   3.908958   3.073095   0.000000
    10  C    3.598947   4.484822   3.976227   1.531430   0.000000
    11  C    4.493489   5.086011   4.297910   1.534021   2.504127
    12  H    2.811397   2.813121   4.987328   5.521871   6.081541
    13  H    3.491102   2.731603   5.078751   6.315086   6.714765
    14  H    2.783936   3.474028   5.844337   6.220919   6.363818
    15  H    2.136791   2.149037   4.199829   4.928331   4.857995
    16  H    2.859496   2.145793   2.030270   2.728023   2.842435
    17  H    2.141315   3.008330   4.161324   3.396994   4.143187
    18  H    2.154309   3.895759   4.602601   2.652250   2.918446
    19  H    3.359338   2.885770   2.522144   2.130157   3.483279
    20  H    1.096442   3.468642   5.256443   4.467337   4.357890
    21  H    1.097409   3.032203   4.278438   3.443183   3.006954
    22  H    3.105804   1.098624   2.676009   4.244288   5.100885
    23  H    3.444783   1.097430   2.611952   4.723442   5.207560
    24  H    4.478447   2.561897   0.972375   3.437133   4.582725
    25  H    4.419617   4.161968   2.656391   1.098206   2.132772
    26  H    3.221051   4.726199   4.717851   2.189393   1.094338
    27  H    3.501656   4.134123   3.696488   2.186354   1.093299
    28  H    4.677833   5.507967   4.687110   2.170621   1.095814
    29  H    4.244316   5.335743   5.012272   2.193979   2.778928
    30  H    4.953433   5.174463   4.257369   2.179136   3.466678
    31  H    5.404098   6.005376   4.953576   2.174820   2.743341
                   11         12         13         14         15
    11  C    0.000000
    12  H    6.177683   0.000000
    13  H    7.277452   1.773090   0.000000
    14  H    7.041704   1.771648   1.768870   0.000000
    15  H    6.155126   3.057017   2.477402   2.452861   0.000000
    16  H    4.227666   4.620810   4.627514   4.904231   2.853966
    17  H    3.703297   2.588531   4.036871   3.667309   3.823145
    18  H    2.827100   4.022062   5.259210   4.546223   4.240843
    19  H    2.630543   4.107657   5.070572   5.303703   4.538477
    20  H    5.142597   2.817313   3.653010   2.428264   2.656944
    21  H    4.493424   3.850036   4.249980   3.552634   2.279628
    22  H    5.184986   2.470532   2.708703   3.646254   3.017424
    23  H    6.001791   3.462695   2.792141   3.896747   2.321535
    24  H    4.406572   4.792459   5.026406   5.907734   4.611730
    25  H    2.123801   6.157549   6.776995   6.922177   5.407005
    26  H    2.783105   5.843903   6.609218   5.978033   4.772098
    27  H    3.471725   6.029311   6.373153   6.127951   4.292909
    28  H    2.728256   7.163309   7.802141   7.447718   5.899298
    29  H    1.094090   5.962908   7.217723   6.737076   6.148313
    30  H    1.095042   6.164673   7.335045   7.269830   6.544136
    31  H    1.095583   7.248047   8.292256   8.040367   7.009365
                   16         17         18         19         20
    16  H    0.000000
    17  H    3.808379   0.000000
    18  H    3.736998   1.745423   0.000000
    19  H    3.049243   2.221370   2.754055   0.000000
    20  H    3.935806   2.481816   2.442137   4.198587   0.000000
    21  H    2.549983   3.044544   2.487371   3.817445   1.751089
    22  H    3.050631   2.802620   4.091788   2.674718   3.878849
    23  H    2.509174   4.093614   4.953448   3.810141   4.307317
    24  H    2.836840   4.015435   4.745589   2.279377   5.487763
    25  H    2.809381   4.225971   3.718657   2.484389   5.378432
    26  H    3.384209   3.880886   2.361435   3.821727   3.747685
    27  H    2.206474   4.492537   3.492192   3.850325   4.347631
    28  H    3.735664   5.125848   3.808290   4.289486   5.384721
    29  H    4.662004   3.400047   2.252436   3.040397   4.681404
    30  H    4.653789   3.738344   3.336216   2.379328   5.613817
    31  H    4.871719   4.782963   3.751674   3.627871   6.047780
                   21         22         23         24         25
    21  H    0.000000
    22  H    3.816834   0.000000
    23  H    3.758385   1.742928   0.000000
    24  H    4.783447   2.404633   2.839293   0.000000
    25  H    4.221884   4.486908   4.796062   3.078255   0.000000
    26  H    2.617417   5.324746   5.545032   5.250667   3.064175
    27  H    2.724831   4.932155   4.677701   4.468331   2.497676
    28  H    4.036128   6.106211   6.176753   5.304611   2.449199
    29  H    4.305974   5.422773   6.338972   5.101441   3.059034
    30  H    5.148328   5.052871   6.081873   4.130717   2.481571
    31  H    5.247123   6.173034   6.855587   5.142618   2.434598
                   26         27         28         29         30
    26  H    0.000000
    27  H    1.771931   0.000000
    28  H    1.764650   1.761117   0.000000
    29  H    2.610444   3.802765   3.094345   0.000000
    30  H    3.796881   4.328227   3.734066   1.772678   0.000000
    31  H    3.124381   3.741831   2.509588   1.766754   1.766443
                   31
    31  H    0.000000
 Stoichiometry    C10H20O
 Framework group  C1[X(C10H20O)]
 Deg. of freedom    87
 Full point group                 C1      NOp   1
 Largest Abelian subgroup         C1      NOp   1
 Largest concise Abelian subgroup C1      NOp   1
                         Standard orientation:                         
 ---------------------------------------------------------------------
 Center     Atomic      Atomic             Coordinates (Angstroms)
 Number     Number       Type             X           Y           Z
 ---------------------------------------------------------------------
      1          6           0        3.398792   -0.679087   -0.416730
      2          6           0        2.199342   -0.293031    0.450269
      3          6           0        0.150388    1.191779    0.320517
      4          6           0        0.061646   -1.191940   -0.615550
      5          6           0       -0.672310    0.162748   -0.491197
      6          6           0        1.128668   -1.397966    0.457297
      7          6           0        1.639633    1.067711    0.008479
      8          8           0       -0.288462    2.513199    0.012112
      9          6           0       -2.136601    0.058015    0.031392
     10          6           0       -2.268258   -0.651190    1.382307
     11          6           0       -3.051675   -0.620577   -0.995922
     12          1           0        3.104884   -0.831934   -1.460547
     13          1           0        4.164245    0.103754   -0.389991
     14          1           0        3.857055   -1.605829   -0.055533
     15          1           0        2.567168   -0.193851    1.480382
     16          1           0        0.003408    1.057249    1.396676
     17          1           0        0.551007   -1.231114   -1.597867
     18          1           0       -0.635758   -2.035014   -0.601957
     19          1           0       -0.759082    0.560830   -1.513661
     20          1           0        1.591039   -2.384929    0.337709
     21          1           0        0.640413   -1.411508    1.440013
     22          1           0        1.793349    1.224588   -1.067967
     23          1           0        2.197838    1.876454    0.497044
     24          1           0       -0.122769    2.671143   -0.932935
     25          1           0       -2.519525    1.079109    0.160977
     26          1           0       -1.958603   -1.699246    1.325142
     27          1           0       -1.672025   -0.160953    2.156567
     28          1           0       -3.310643   -0.636189    1.719971
     29          1           0       -2.790346   -1.671898   -1.149100
     30          1           0       -2.996788   -0.111032   -1.963635
     31          1           0       -4.094920   -0.583986   -0.663350
 ---------------------------------------------------------------------
 Rotational constants (GHZ):      1.6372385      0.7425807      0.6121694
 Standard basis: STO-3G (5D, 7F)
 There are    75 symmetry adapted basis functions of A   symmetry.
 Integral buffers will be    131072 words long.
 Raffenetti 1 integral format.
 Two-electron integral symmetry is turned on.
    75 basis functions,   225 primitive gaussians,    75 cartesian basis functions
    44 alpha electrons       44 beta electrons
       nuclear repulsion energy       693.7528583737 Hartrees.
 NAtoms=   31 NActive=   31 NUniq=   31 SFac= 1.00D+00 NAtFMM=   60 NAOKFM=F Big=F
 One-electron integrals computed using PRISM.
 NBasis=    75 RedAO= T  NBF=    75
 NBsUse=    75 1.00D-06 NBFU=    75
 Harris functional with IExCor=  205 diagonalized for initial guess.
 ExpMin= 1.69D-01 ExpMax= 1.31D+02 ExpMxC= 1.31D+02 IAcc=1 IRadAn=         1 AccDes= 0.00D+00
 HarFok:  IExCor=  205 AccDes= 0.00D+00 IRadAn=         1 IDoV= 1
 ScaDFX=  1.000000  1.000000  1.000000  1.000000
 FoFCou: FMM=F IPFlag=           0 FMFlag=      100000 FMFlg1=           0
         NFxFlg=           0 DoJE=T BraDBF=F KetDBF=T FulRan=T
         Omega=  0.000000  0.000000  1.000000  0.000000  0.000000 ICntrl=     500 IOpCl=  0
         NMat0=    1 NMatS0=    1 NMatT0=    0 NMatD0=    1 NMtDS0=    0 NMtDT0=    0
         I1Cent=           4 NGrid=           0.
 Petite list used in FoFCou.
 Initial guess orbital symmetries:
       Occupied  (A) (A) (A) (A) (A) (A) (A) (A) (A) (A) (A) (A)
                 (A) (A) (A) (A) (A) (A) (A) (A) (A) (A) (A) (A)
                 (A) (A) (A) (A) (A) (A) (A) (A) (A) (A) (A) (A)
                 (A) (A) (A) (A) (A) (A) (A) (A)
       Virtual   (A) (A) (A) (A) (A) (A) (A) (A) (A) (A) (A) (A)
                 (A) (A) (A) (A) (A) (A) (A) (A) (A) (A) (A) (A)
                 (A) (A) (A) (A) (A) (A) (A)
 The electronic state of the initial guess is 1-A.
 Requested convergence on RMS density matrix=1.00D-08 within 128 cycles.
 Requested convergence on MAX density matrix=1.00D-06.
 Requested convergence on             energy=1.00D-06.
 No special actions if energy rises.
 Keep R1 ints in memory in canonical form, NReq=4898789.
 SCF Done:  E(RHF) =  -459.612776937     A.U. after   10 cycles
             Convg  =    0.6512D-08             -V/T =  2.0089
 Range of M.O.s used for correlation:     1    75
 NBasis=    75 NAE=    44 NBE=    44 NFC=     0 NFV=     0
 NROrb=     75 NOA=    44 NOB=    44 NVA=    31 NVB=    31
          Differentiating once with respect to magnetic field using GIAOs.
          Electric field/nuclear overlap derivatives assumed to be zero.
          Keep R3 ints in memory in canonical form, NReq=4863575.
 FoFCou: FMM=F IPFlag=           0 FMFlag=           0 FMFlg1=           0
         NFxFlg=           0 DoJE=F BraDBF=F KetDBF=T FulRan=T
         Omega=  0.000000  0.000000  1.000000  0.000000  0.000000 ICntrl=    6100 IOpCl=  0
         NMat0=    1 NMatS0=    1 NMatT0=    0 NMatD0=    1 NMtDS0=    0 NMtDT0=    0
         I1Cent=           7 NGrid=          31.
 Symmetry not used in FoFCou.
          There are     3 degrees of freedom in the 1st order CPHF.  IDoFFX=0.
      3 vectors produced by pass  0 Test12= 4.55D-14 3.33D-08 XBig12= 6.77D+00 3.25D-01.
 AX will form     3 AO Fock derivatives at one time.
      3 vectors produced by pass  1 Test12= 4.55D-14 3.33D-08 XBig12= 9.66D-03 1.16D-02.
      3 vectors produced by pass  2 Test12= 4.55D-14 3.33D-08 XBig12= 7.10D-05 2.20D-03.
      3 vectors produced by pass  3 Test12= 4.55D-14 3.33D-08 XBig12= 1.81D-06 3.45D-04.
      3 vectors produced by pass  4 Test12= 4.55D-14 3.33D-08 XBig12= 1.91D-08 4.29D-05.
      3 vectors produced by pass  5 Test12= 4.55D-14 3.33D-08 XBig12= 3.38D-10 4.16D-06.
      3 vectors produced by pass  6 Test12= 4.55D-14 3.33D-08 XBig12= 4.59D-12 5.73D-07.
      1 vectors produced by pass  7 Test12= 4.55D-14 3.33D-08 XBig12= 6.10D-14 5.10D-08.
 Inverted reduced A of dimension    22 with in-core refinement.
 Calculating GIAO nuclear magnetic shielding tensors.
 SCF GIAO Magnetic shielding tensor (ppm):
      1  C    Isotropic =   221.0471   Anisotropy =    26.9895
   XX=   230.7254   YX=    -8.7769   ZX=    -9.0656
   XY=    -6.1760   YY=   217.6064   ZY=     1.0078
   XZ=   -14.2584   YZ=    -0.4554   ZZ=   214.8094
   Eigenvalues:   207.4275   216.6737   239.0401
      2  C    Isotropic =   216.5743   Anisotropy =     9.5281
   XX=   222.8812   YX=     0.5409   ZX=     0.9790
   XY=    -1.0788   YY=   219.8795   ZY=    -0.7459
   XZ=    -0.0307   YZ=    -1.5676   ZZ=   206.9622
   Eigenvalues:   206.8469   219.9497   222.9263
      3  C    Isotropic =   189.9620   Anisotropy =    41.8905
   XX=   185.8813   YX=    -9.2919   ZX=     4.6896
   XY=    -7.5695   YY=   213.4577   ZY=    -9.5664
   XZ=     4.7415   YZ=    -8.2591   ZZ=   170.5470
   Eigenvalues:   168.2117   183.7853   217.8890
      4  C    Isotropic =   220.7381   Anisotropy =    15.8941
   XX=   223.8221   YX=    -7.2639   ZX=     4.7158
   XY=    -6.2829   YY=   224.4920   ZY=     1.1994
   XZ=     5.3204   YZ=     1.4165   ZZ=   213.9003
   Eigenvalues:   210.5674   220.3129   231.3342
      5  C    Isotropic =   207.4754   Anisotropy =    16.2579
   XX=   213.1410   YX=    10.4562   ZX=     2.4211
   XY=     4.3870   YY=   206.8489   ZY=     0.9345
   XZ=     1.7610   YZ=     0.0775   ZZ=   202.4364
   Eigenvalues:   201.3190   202.7932   218.3140
      6  C    Isotropic =   217.7209   Anisotropy =    14.5425
   XX=   225.1283   YX=     3.7941   ZX=     1.8056
   XY=     4.1550   YY=   220.1791   ZY=    -2.1268
   XZ=     2.5765   YZ=    -0.6743   ZZ=   207.8554
   Eigenvalues:   207.2891   218.4577   227.4159
      7  C    Isotropic =   214.7491   Anisotropy =    23.0476
   XX=   222.3225   YX=   -11.1834   ZX=    -3.3786
   XY=    -9.8565   YY=   215.7182   ZY=    -2.8551
   XZ=    -2.5969   YZ=    -1.0277   ZZ=   206.2066
   Eigenvalues:   203.6117   210.5215   230.1142
      8  O    Isotropic =   348.4222   Anisotropy =    87.0089
   XX=   315.6425   YX=     1.8688   ZX=   -21.1648
   XY=    -0.8554   YY=   325.8972   ZY=    10.3979
   XZ=    -8.4556   YZ=   -19.8172   ZZ=   403.7269
   Eigenvalues:   313.2136   325.6249   406.4281
      9  C    Isotropic =   213.9114   Anisotropy =    15.3343
   XX=   223.5237   YX=     1.5814   ZX=    -0.8927
   XY=     3.9590   YY=   205.2249   ZY=     0.0976
   XZ=    -2.1811   YZ=     0.2595   ZZ=   212.9856
   Eigenvalues:   204.7947   212.8052   224.1343
     10  C    Isotropic =   224.3839   Anisotropy =    20.1814
   XX=   220.3948   YX=     0.9407   ZX=    -2.6731
   XY=     0.3766   YY=   218.5007   ZY=    -9.3421
   XZ=    -1.2853   YZ=    -6.6133   ZZ=   234.2561
   Eigenvalues:   215.1619   220.1515   237.8381
     11  C    Isotropic =   221.2488   Anisotropy =    27.0650
   XX=   224.7214   YX=     6.3524   ZX=    10.7023
   XY=    10.0353   YY=   211.4433   ZY=     5.6824
   XZ=     9.9309   YZ=     2.9527   ZZ=   227.5819
   Eigenvalues:   207.5156   216.9388   239.2922
     12  H    Isotropic =    32.6493   Anisotropy =     9.9829
   XX=    32.1231   YX=    -0.8310   ZX=    -1.7542
   XY=    -1.0618   YY=    27.6006   ZY=     2.4329
   XZ=    -1.7974   YZ=     2.5487   ZZ=    38.2242
   Eigenvalues:    26.9856    31.6577    39.3045
     13  H    Isotropic =    32.4493   Anisotropy =    13.9421
   XX=    39.2680   YX=     4.7272   ZX=    -1.7232
   XY=     4.7539   YY=    31.5308   ZY=    -0.0112
   XZ=    -2.1863   YZ=    -0.3829   ZZ=    26.5491
   Eigenvalues:    26.1850    29.4189    41.7440
     14  H    Isotropic =    32.5604   Anisotropy =    14.2248
   XX=    35.1254   YX=    -6.7369   ZX=     0.4077
   XY=    -6.5748   YY=    35.2316   ZY=    -2.3729
   XZ=     0.2863   YZ=    -1.8611   ZZ=    27.3241
   Eigenvalues:    26.3974    29.2401    42.0436
     15  H    Isotropic =    32.3487   Anisotropy =    13.7583
   XX=    31.4567   YX=     0.4271   ZX=     5.6308
   XY=     0.2721   YY=    27.1685   ZY=     0.7150
   XZ=     5.4028   YZ=     0.9869   ZZ=    38.4210
   Eigenvalues:    27.1020    28.4233    41.5209
     16  H    Isotropic =    31.5713   Anisotropy =     7.2093
   XX=    30.3503   YX=     0.6529   ZX=    -1.5134
   XY=     0.6784   YY=    28.5384   ZY=     0.1084
   XZ=    -1.9984   YZ=     1.4042   ZZ=    35.8253
   Eigenvalues:    28.0883    30.2482    36.3776
     17  H    Isotropic =    32.6356   Anisotropy =    12.1524
   XX=    31.5388   YX=    -1.6300   ZX=    -3.2295
   XY=    -1.5705   YY=    27.9930   ZY=     3.4673
   XZ=    -2.9189   YZ=     3.6215   ZZ=    38.3748
   Eigenvalues:    26.7973    30.3723    40.7371
     18  H    Isotropic =    32.6047   Anisotropy =    11.7575
   XX=    35.2879   YX=     3.6095   ZX=     1.2726
   XY=     4.1411   YY=    36.8689   ZY=     2.3152
   XZ=     1.1273   YZ=     2.0735   ZZ=    25.6573
   Eigenvalues:    25.2188    32.1522    40.4430
     19  H    Isotropic =    32.9879   Anisotropy =     9.7355
   XX=    31.5712   YX=     0.2464   ZX=     1.0527
   XY=     0.4682   YY=    29.9384   ZY=    -4.2713
   XZ=     1.7531   YZ=    -4.0791   ZZ=    37.4540
   Eigenvalues:    27.8556    31.6299    39.4782
     20  H    Isotropic =    32.6964   Anisotropy =    13.7932
   XX=    32.2095   YX=    -3.9297   ZX=     0.5477
   XY=    -4.1010   YY=    40.1366   ZY=    -1.2913
   XZ=     0.3757   YZ=    -0.7362   ZZ=    25.7431
   Eigenvalues:    25.6660    30.5313    41.8918
     21  H    Isotropic =    32.6547   Anisotropy =    10.8186
   XX=    32.6940   YX=     0.4700   ZX=    -3.4591
   XY=     0.5294   YY=    28.3104   ZY=    -3.8931
   XZ=    -3.0074   YZ=    -3.8310   ZZ=    36.9598
   Eigenvalues:    26.7443    31.3528    39.8671
     22  H    Isotropic =    33.2073   Anisotropy =     9.4068
   XX=    32.7988   YX=     0.2015   ZX=    -3.0041
   XY=    -0.1326   YY=    30.9481   ZY=    -4.0184
   XZ=    -3.5824   YZ=    -4.1668   ZZ=    35.8750
   Eigenvalues:    27.9995    32.1438    39.4785
     23  H    Isotropic =    31.9372   Anisotropy =    13.8602
   XX=    32.9807   YX=     4.7233   ZX=     3.1754
   XY=     4.5775   YY=    36.3076   ZY=     3.6719
   XZ=     2.9745   YZ=     3.8158   ZZ=    26.5232
   Eigenvalues:    24.9060    29.7282    41.1773
     24  H    Isotropic =    35.4130   Anisotropy =    15.7576
   XX=    28.4357   YX=    -0.9980   ZX=    -1.5783
   XY=    -1.7461   YY=    37.2557   ZY=    -5.7600
   XZ=    -1.0074   YZ=    -7.8779   ZZ=    40.5476
   Eigenvalues:    27.6098    32.7112    45.9181
     25  H    Isotropic =    31.9948   Anisotropy =    11.4373
   XX=    32.9836   YX=    -3.8417   ZX=    -0.8715
   XY=    -3.5832   YY=    37.3510   ZY=     0.9995
   XZ=    -0.5757   YZ=     1.4551   ZZ=    25.6497
   Eigenvalues:    25.5044    30.8603    39.6196
     26  H    Isotropic =    32.7852   Anisotropy =     9.1571
   XX=    30.6818   YX=    -1.3846   ZX=    -1.7428
   XY=    -1.0465   YY=    37.6394   ZY=    -3.2460
   XZ=    -1.7797   YZ=    -3.3008   ZZ=    30.0345
   Eigenvalues:    27.4699    31.9958    38.8900
     27  H    Isotropic =    32.5025   Anisotropy =    10.3934
   XX=    31.6069   YX=     2.9244   ZX=     1.5240
   XY=     2.9517   YY=    27.5263   ZY=     1.9957
   XZ=     1.6295   YZ=     2.4722   ZZ=    38.3744
   Eigenvalues:    25.8564    32.2198    39.4315
     28  H    Isotropic =    32.5147   Anisotropy =    15.0332
   XX=    38.5591   YX=     0.8524   ZX=    -6.1635
   XY=     1.0752   YY=    26.3598   ZY=    -1.1654
   XZ=    -6.1176   YZ=    -1.1087   ZZ=    32.6253
   Eigenvalues:    26.1579    28.8495    42.5368
     29  H    Isotropic =    32.5527   Anisotropy =     9.9529
   XX=    31.3603   YX=     0.7807   ZX=     1.9275
   XY=     0.8353   YY=    37.2949   ZY=     3.9672
   XZ=     2.1089   YZ=     3.9803   ZZ=    29.0029
   Eigenvalues:    26.8366    31.6335    39.1879
     30  H    Isotropic =    32.6065   Anisotropy =    12.8669
   XX=    30.8412   YX=     0.4844   ZX=     3.6607
   XY=     0.4368   YY=    28.0800   ZY=    -3.4536
   XZ=     3.7369   YZ=    -3.9763   ZZ=    38.8984
   Eigenvalues:    26.2914    30.3438    41.1844
     31  H    Isotropic =    32.4110   Anisotropy =    14.6878
   XX=    42.1090   YX=     0.9974   ZX=    -0.0358
   XY=     1.4394   YY=    26.3204   ZY=     0.2623
   XZ=     0.1141   YZ=     0.4655   ZZ=    28.8035
   Eigenvalues:    26.1776    28.8524    42.2029
 End of Minotr Frequency-dependent properties file   721 does not exist.
 End of Minotr Frequency-dependent properties file   722 does not exist.

 **********************************************************************

            Population analysis using the SCF density.

 **********************************************************************

 Orbital symmetries:
       Occupied  (A) (A) (A) (A) (A) (A) (A) (A) (A) (A) (A) (A)
                 (A) (A) (A) (A) (A) (A) (A) (A) (A) (A) (A) (A)
                 (A) (A) (A) (A) (A) (A) (A) (A) (A) (A) (A) (A)
                 (A) (A) (A) (A) (A) (A) (A) (A)
       Virtual   (A) (A) (A) (A) (A) (A) (A) (A) (A) (A) (A) (A)
                 (A) (A) (A) (A) (A) (A) (A) (A) (A) (A) (A) (A)
                 (A) (A) (A) (A) (A) (A) (A)
 The electronic state is 1-A.
 Alpha  occ. eigenvalues --  -20.23833 -11.08510 -11.04786 -11.04439 -11.04231
 Alpha  occ. eigenvalues --  -11.03790 -11.03716 -11.03703 -11.03312 -11.02937
 Alpha  occ. eigenvalues --  -11.02909  -1.27869  -1.08338  -1.03679  -0.96642
 Alpha  occ. eigenvalues --   -0.94794  -0.89000  -0.88093  -0.81184  -0.78065
 Alpha  occ. eigenvalues --   -0.72619  -0.69448  -0.63486  -0.60896  -0.58366
 Alpha  occ. eigenvalues --   -0.57973  -0.55618  -0.54820  -0.52582  -0.52073
 Alpha  occ. eigenvalues --   -0.50685  -0.50594  -0.49563  -0.48636  -0.47546
 Alpha  occ. eigenvalues --   -0.46217  -0.44267  -0.43021  -0.42285  -0.41466
 Alpha  occ. eigenvalues --   -0.39812  -0.39033  -0.36215  -0.32504
 Alpha virt. eigenvalues --    0.53789   0.54883   0.57516   0.60010   0.60400
 Alpha virt. eigenvalues --    0.60822   0.61959   0.64381   0.65279   0.66382
 Alpha virt. eigenvalues --    0.67221   0.68623   0.69606   0.70937   0.71504
 Alpha virt. eigenvalues --    0.72773   0.73227   0.74431   0.74984   0.75508
 Alpha virt. eigenvalues --    0.76334   0.78057   0.78585   0.79569   0.80393
 Alpha virt. eigenvalues --    0.81237   0.81788   0.84356   0.85369   0.86090
 Alpha virt. eigenvalues --    0.87381
          Condensed to atoms (all electrons):
              1          2          3          4          5          6
     1  C    4.741267   0.364882   0.000719  -0.000199   0.000010  -0.023928
     2  C    0.364882   4.746749  -0.019887  -0.021744  -0.002572   0.361952
     3  C    0.000719  -0.019887   4.742888  -0.020319   0.355810  -0.008370
     4  C   -0.000199  -0.021744  -0.020319   4.758262   0.357503   0.362902
     5  C    0.000010  -0.002572   0.355810   0.357503   4.795272  -0.020690
     6  C   -0.023928   0.361952  -0.008370   0.362902  -0.020690   4.758547
     7  C   -0.024926   0.360104   0.358378  -0.005968  -0.025300  -0.021910
     8  O   -0.000001   0.000254   0.270120   0.000231  -0.018196   0.000007
     9  C    0.000000   0.000003  -0.020447  -0.019310   0.358556   0.000321
    10  C    0.000000   0.000003  -0.001539  -0.002089  -0.020478  -0.000211
    11  C    0.000000   0.000000   0.000637  -0.001512  -0.022297   0.000008
    12  H    0.382052  -0.020735   0.000016  -0.000038   0.000013  -0.001909
    13  H    0.382477  -0.020140   0.000014  -0.000012  -0.000001   0.001279
    14  H    0.382474  -0.020195  -0.000017   0.000023  -0.000001  -0.002349
    15  H   -0.024921   0.383381  -0.000014   0.001265   0.000021  -0.024761
    16  H    0.000001  -0.001767   0.379331  -0.000010  -0.022643  -0.000234
    17  H    0.000010  -0.002132   0.000641   0.381915  -0.022507  -0.023951
    18  H   -0.000008   0.001237   0.000941   0.382971  -0.019875  -0.021467
    19  H    0.000001   0.000072  -0.024430  -0.024581   0.379627   0.001229
    20  H   -0.005088  -0.020772   0.000077  -0.021103   0.001171   0.383076
    21  H    0.001319  -0.022513  -0.000201  -0.023655  -0.001914   0.381995
    22  H   -0.005390  -0.020943  -0.023763   0.000043  -0.002632   0.000173
    23  H    0.000090  -0.020477  -0.020749   0.000042   0.001206   0.001132
    24  H    0.000000  -0.000005  -0.042142  -0.000003  -0.002970   0.000002
    25  H    0.000000  -0.000001  -0.002938   0.001070  -0.022840  -0.000016
    26  H    0.000000   0.000001   0.000030  -0.000427  -0.001504  -0.000315
    27  H    0.000000   0.000003  -0.000739   0.000040  -0.001607  -0.000110
    28  H    0.000000   0.000000   0.000017   0.000013   0.001122   0.000006
    29  H    0.000000   0.000000  -0.000002  -0.000604  -0.001389   0.000006
    30  H    0.000000   0.000000   0.000022   0.000049  -0.002541  -0.000001
    31  H    0.000000   0.000000  -0.000014   0.000010   0.001173   0.000000
              7          8          9         10         11         12
     1  C   -0.024926  -0.000001   0.000000   0.000000   0.000000   0.382052
     2  C    0.360104   0.000254   0.000003   0.000003   0.000000  -0.020735
     3  C    0.358378   0.270120  -0.020447  -0.001539   0.000637   0.000016
     4  C   -0.005968   0.000231  -0.019310  -0.002089  -0.001512  -0.000038
     5  C   -0.025300  -0.018196   0.358556  -0.020478  -0.022297   0.000013
     6  C   -0.021910   0.000007   0.000321  -0.000211   0.000008  -0.001909
     7  C    4.785682  -0.019428   0.000630   0.000007  -0.000004  -0.002309
     8  O   -0.019428   7.844477  -0.000500   0.000015  -0.000002   0.000000
     9  C    0.000630  -0.000500   4.742209   0.364284   0.364499   0.000000
    10  C    0.000007   0.000015   0.364284   4.742704  -0.026043   0.000000
    11  C   -0.000004  -0.000002   0.364499  -0.026043   4.744097   0.000000
    12  H   -0.002309   0.000000   0.000000   0.000000   0.000000   0.632675
    13  H   -0.002237   0.000000   0.000000   0.000000   0.000000  -0.021728
    14  H    0.001305   0.000000   0.000000   0.000000   0.000000  -0.021852
    15  H   -0.023849  -0.000003   0.000001   0.000000   0.000000   0.001944
    16  H   -0.025140  -0.019181  -0.003073  -0.000678   0.000012  -0.000001
    17  H   -0.000021  -0.000004   0.001140   0.000015   0.000029  -0.000002
    18  H    0.000035  -0.000003  -0.004521  -0.000493  -0.000692  -0.000011
    19  H   -0.000996  -0.002317  -0.025003   0.001189  -0.003932   0.000000
    20  H    0.001090   0.000000  -0.000012   0.000003   0.000000   0.000041
    21  H    0.000190   0.000001   0.000112  -0.000289   0.000002   0.000001
    22  H    0.379766  -0.001028   0.000009  -0.000001   0.000000   0.000316
    23  H    0.382513  -0.000745  -0.000014   0.000000   0.000000   0.000007
    24  H   -0.003255   0.257204   0.000034  -0.000003  -0.000004   0.000000
    25  H    0.000026   0.000502   0.381965  -0.024354  -0.024762   0.000000
    26  H   -0.000001   0.000000  -0.020415   0.382183  -0.002249   0.000000
    27  H   -0.000005   0.000009  -0.019667   0.382486   0.001322   0.000000
    28  H    0.000000   0.000000  -0.019887   0.382426  -0.002471   0.000000
    29  H    0.000000   0.000000  -0.020128  -0.002289   0.382099   0.000000
    30  H    0.000000   0.000001  -0.020226   0.001313   0.382081   0.000000
    31  H    0.000000   0.000000  -0.019858  -0.002185   0.382478   0.000000
             13         14         15         16         17         18
     1  C    0.382477   0.382474  -0.024921   0.000001   0.000010  -0.000008
     2  C   -0.020140  -0.020195   0.383381  -0.001767  -0.002132   0.001237
     3  C    0.000014  -0.000017  -0.000014   0.379331   0.000641   0.000941
     4  C   -0.000012   0.000023   0.001265  -0.000010   0.381915   0.382971
     5  C   -0.000001  -0.000001   0.000021  -0.022643  -0.022507  -0.019875
     6  C    0.001279  -0.002349  -0.024761  -0.000234  -0.023951  -0.021467
     7  C   -0.002237   0.001305  -0.023849  -0.025140  -0.000021   0.000035
     8  O    0.000000   0.000000  -0.000003  -0.019181  -0.000004  -0.000003
     9  C    0.000000   0.000000   0.000001  -0.003073   0.001140  -0.004521
    10  C    0.000000   0.000000   0.000000  -0.000678   0.000015  -0.000493
    11  C    0.000000   0.000000   0.000000   0.000012   0.000029  -0.000692
    12  H   -0.021728  -0.021852   0.001944  -0.000001  -0.000002  -0.000011
    13  H    0.630224  -0.021696  -0.002303  -0.000001  -0.000011   0.000001
    14  H   -0.021696   0.631109  -0.002544   0.000000   0.000015  -0.000002
    15  H   -0.002303  -0.002544   0.652141   0.000239   0.000003  -0.000034
    16  H   -0.000001   0.000000   0.000239   0.629353  -0.000022  -0.000019
    17  H   -0.000011   0.000015   0.000003  -0.000022   0.650444  -0.024227
    18  H    0.000001  -0.000002  -0.000034  -0.000019  -0.024227   0.636252
    19  H    0.000000   0.000000   0.000001   0.001729  -0.007656   0.000940
    20  H    0.000071   0.000078   0.000338   0.000004  -0.002327  -0.002321
    21  H   -0.000037   0.000046  -0.006092  -0.000576   0.002086  -0.002335
    22  H   -0.000136   0.000076   0.001851   0.001908  -0.000266   0.000000
    23  H    0.000169  -0.000024  -0.005710  -0.002239   0.000003   0.000001
    24  H    0.000000   0.000000   0.000000   0.003595   0.000002  -0.000001
    25  H    0.000000   0.000000   0.000000  -0.000003  -0.000030   0.000045
    26  H    0.000000   0.000000   0.000000   0.000030   0.000006  -0.000322
    27  H    0.000000   0.000000   0.000000  -0.000413  -0.000003   0.000036
    28  H    0.000000   0.000000   0.000000  -0.000018   0.000000  -0.000018
    29  H    0.000000   0.000000   0.000000   0.000000  -0.000045  -0.000348
    30  H    0.000000   0.000000   0.000000   0.000000  -0.000009   0.000034
    31  H    0.000000   0.000000   0.000000  -0.000001   0.000001  -0.000016
             19         20         21         22         23         24
     1  C    0.000001  -0.005088   0.001319  -0.005390   0.000090   0.000000
     2  C    0.000072  -0.020772  -0.022513  -0.020943  -0.020477  -0.000005
     3  C   -0.024430   0.000077  -0.000201  -0.023763  -0.020749  -0.042142
     4  C   -0.024581  -0.021103  -0.023655   0.000043   0.000042  -0.000003
     5  C    0.379627   0.001171  -0.001914  -0.002632   0.001206  -0.002970
     6  C    0.001229   0.383076   0.381995   0.000173   0.001132   0.000002
     7  C   -0.000996   0.001090   0.000190   0.379766   0.382513  -0.003255
     8  O   -0.002317   0.000000   0.000001  -0.001028  -0.000745   0.257204
     9  C   -0.025003  -0.000012   0.000112   0.000009  -0.000014   0.000034
    10  C    0.001189   0.000003  -0.000289  -0.000001   0.000000  -0.000003
    11  C   -0.003932   0.000000   0.000002   0.000000   0.000000  -0.000004
    12  H    0.000000   0.000041   0.000001   0.000316   0.000007   0.000000
    13  H    0.000000   0.000071  -0.000037  -0.000136   0.000169   0.000000
    14  H    0.000000   0.000078   0.000046   0.000076  -0.000024   0.000000
    15  H    0.000001   0.000338  -0.006092   0.001851  -0.005710   0.000000
    16  H    0.001729   0.000004  -0.000576   0.001908  -0.002239   0.003595
    17  H   -0.007656  -0.002327   0.002086  -0.000266   0.000003   0.000002
    18  H    0.000940  -0.002321  -0.002335   0.000000   0.000001  -0.000001
    19  H    0.664264  -0.000034  -0.000003   0.000314  -0.000015   0.000868
    20  H   -0.000034   0.637366  -0.023852  -0.000020  -0.000025   0.000000
    21  H   -0.000003  -0.023852   0.647226  -0.000024  -0.000013  -0.000001
    22  H    0.000314  -0.000020  -0.000024   0.651429  -0.025174   0.000712
    23  H   -0.000015  -0.000025  -0.000013  -0.025174   0.632320  -0.000035
    24  H    0.000868   0.000000  -0.000001   0.000712  -0.000035   0.610558
    25  H   -0.001544   0.000001  -0.000007   0.000000  -0.000001   0.000012
    26  H    0.000006   0.000017  -0.000192   0.000000   0.000000   0.000000
    27  H    0.000007   0.000002  -0.000123   0.000000   0.000001  -0.000002
    28  H   -0.000032   0.000000   0.000006   0.000000   0.000000   0.000000
    29  H    0.000001   0.000001   0.000000   0.000000   0.000000   0.000000
    30  H    0.000194   0.000000   0.000000   0.000000   0.000000  -0.000001
    31  H    0.000051   0.000000   0.000000   0.000000   0.000000   0.000000
             25         26         27         28         29         30
     1  C    0.000000   0.000000   0.000000   0.000000   0.000000   0.000000
     2  C   -0.000001   0.000001   0.000003   0.000000   0.000000   0.000000
     3  C   -0.002938   0.000030  -0.000739   0.000017  -0.000002   0.000022
     4  C    0.001070  -0.000427   0.000040   0.000013  -0.000604   0.000049
     5  C   -0.022840  -0.001504  -0.001607   0.001122  -0.001389  -0.002541
     6  C   -0.000016  -0.000315  -0.000110   0.000006   0.000006  -0.000001
     7  C    0.000026  -0.000001  -0.000005   0.000000   0.000000   0.000000
     8  O    0.000502   0.000000   0.000009   0.000000   0.000000   0.000001
     9  C    0.381965  -0.020415  -0.019667  -0.019887  -0.020128  -0.020226
    10  C   -0.024354   0.382183   0.382486   0.382426  -0.002289   0.001313
    11  C   -0.024762  -0.002249   0.001322  -0.002471   0.382099   0.382081
    12  H    0.000000   0.000000   0.000000   0.000000   0.000000   0.000000
    13  H    0.000000   0.000000   0.000000   0.000000   0.000000   0.000000
    14  H    0.000000   0.000000   0.000000   0.000000   0.000000   0.000000
    15  H    0.000000   0.000000   0.000000   0.000000   0.000000   0.000000
    16  H   -0.000003   0.000030  -0.000413  -0.000018   0.000000   0.000000
    17  H   -0.000030   0.000006  -0.000003   0.000000  -0.000045  -0.000009
    18  H    0.000045  -0.000322   0.000036  -0.000018  -0.000348   0.000034
    19  H   -0.001544   0.000006   0.000007  -0.000032   0.000001   0.000194
    20  H    0.000001   0.000017   0.000002   0.000000   0.000001   0.000000
    21  H   -0.000007  -0.000192  -0.000123   0.000006   0.000000   0.000000
    22  H    0.000000   0.000000   0.000000   0.000000   0.000000   0.000000
    23  H   -0.000001   0.000000   0.000001   0.000000   0.000000   0.000000
    24  H    0.000012   0.000000  -0.000002   0.000000   0.000000  -0.000001
    25  H    0.641790   0.001892  -0.002098  -0.002598   0.001907  -0.002082
    26  H    0.001892   0.632374  -0.021927  -0.022037   0.000356   0.000011
    27  H   -0.002098  -0.021927   0.631147  -0.021926   0.000011  -0.000037
    28  H   -0.002598  -0.022037  -0.021926   0.630160  -0.000015   0.000031
    29  H    0.001907   0.000356   0.000011  -0.000015   0.632321  -0.021834
    30  H   -0.002082   0.000011  -0.000037   0.000031  -0.021834   0.633138
    31  H   -0.002796  -0.000013   0.000025   0.000095  -0.022079  -0.021724
             31
     1  C    0.000000
     2  C    0.000000
     3  C   -0.000014
     4  C    0.000010
     5  C    0.001173
     6  C    0.000000
     7  C    0.000000
     8  O    0.000000
     9  C   -0.019858
    10  C   -0.002185
    11  C    0.382478
    12  H    0.000000
    13  H    0.000000
    14  H    0.000000
    15  H    0.000000
    16  H   -0.000001
    17  H    0.000001
    18  H   -0.000016
    19  H    0.000051
    20  H    0.000000
    21  H    0.000000
    22  H    0.000000
    23  H    0.000000
    24  H    0.000000
    25  H   -0.002796
    26  H   -0.000013
    27  H    0.000025
    28  H    0.000095
    29  H   -0.022079
    30  H   -0.021724
    31  H    0.630567
 Mulliken atomic charges:
              1
     1  C   -0.170843
     2  C   -0.024759
     3  C    0.075933
     4  C   -0.104767
     5  C   -0.039527
     6  C   -0.102416
     7  C   -0.114375
     8  O   -0.311410
     9  C   -0.020704
    10  C   -0.175979
    11  C   -0.173294
    12  H    0.051520
    13  H    0.054068
    14  H    0.053553
    15  H    0.049047
    16  H    0.059814
    17  H    0.046904
    18  H    0.054222
    19  H    0.040050
    20  H    0.052219
    21  H    0.048844
    22  H    0.042781
    23  H    0.057738
    24  H    0.175433
    25  H    0.056858
    26  H    0.052498
    27  H    0.053569
    28  H    0.055125
    29  H    0.052031
    30  H    0.051580
    31  H    0.054286
 Sum of Mulliken atomic charges =   0.00000
 Mulliken charges with hydrogens summed into heavy atoms:
              1
     1  C   -0.011701
     2  C    0.024288
     3  C    0.135747
     4  C   -0.003641
     5  C    0.000523
     6  C   -0.001353
     7  C   -0.013856
     8  O   -0.135977
     9  C    0.036155
    10  C   -0.014787
    11  C   -0.015397
 Sum of Mulliken charges with hydrogens summed into heavy atoms =   0.00000
 Electronic spatial extent (au):  <R**2>=           2105.2261
 Charge=              0.0000 electrons
 Dipole moment (field-independent basis, Debye):
    X=              0.5759    Y=             -0.9523    Z=             -0.8734  Tot=              1.4147
 Quadrupole moment (field-independent basis, Debye-Ang):
   XX=            -68.0977   YY=            -71.4602   ZZ=            -66.1871
   XY=              1.4356   XZ=              0.2103   YZ=             -2.9876
 Traceless Quadrupole moment (field-independent basis, Debye-Ang):
   XX=              0.4839   YY=             -2.8785   ZZ=              2.3946
   XY=              1.4356   XZ=              0.2103   YZ=             -2.9876
 Octapole moment (field-independent basis, Debye-Ang**2):
  XXX=             -4.4789  YYY=              0.5123  ZZZ=             -1.5408  XYY=              4.1109
  XXY=              5.9923  XXZ=              2.7672  XZZ=              0.7183  YZZ=              9.4850
  YYZ=             -8.7335  XYZ=              0.7260
 Hexadecapole moment (field-independent basis, Debye-Ang**3):
 XXXX=          -1747.3627 YYYY=           -634.0515 ZZZZ=           -311.6923 XXXY=             -1.6685
 XXXZ=             -2.2916 YYYX=              4.6152 YYYZ=            -24.3784 ZZZX=              1.0366
 ZZZY=             -2.8314 XXYY=           -391.3326 XXZZ=           -348.8585 YYZZ=           -147.8617
 XXYZ=             -2.1261 YYXZ=              3.1850 ZZXY=             -3.5149
 N-N= 6.937528583737D+02 E-N=-2.459413431980D+03  KE= 4.555532812279D+02
 ******************************Gaussian NBO Version 3.1******************************
             N A T U R A L   A T O M I C   O R B I T A L   A N D
          N A T U R A L   B O N D   O R B I T A L   A N A L Y S I S
 ******************************Gaussian NBO Version 3.1******************************
       /RESON  / : Allow strongly delocalized NBO set
       /NLMO   / : Form Natural Localized Molecular Orbitals
       /NMR /    : Analyze NMR Sheilding Tensor 

 Analyzing the SCF density

 Job title: comment                                                         

 Storage needed:     19864 in NPA,     23691 in NBO,     45933 in NLMO (  33549317 available)


 NATURAL POPULATIONS:  Natural atomic orbital occupancies 
                                                          
   NAO  Atom  No  lang   Type(AO)    Occupancy      Energy
 ----------------------------------------------------------
     1    C    1  S      Cor( 1S)     1.99998     -10.96670
     2    C    1  S      Val( 2S)     1.08060      -0.18384
     3    C    1  px     Val( 2p)     1.00477       0.08426
     4    C    1  py     Val( 2p)     1.02554       0.08257
     5    C    1  pz     Val( 2p)     1.01492       0.08509

     6    C    2  S      Cor( 1S)     1.99997     -10.99090
     7    C    2  S      Val( 2S)     1.08122      -0.19496
     8    C    2  px     Val( 2p)     0.96006       0.10627
     9    C    2  py     Val( 2p)     0.95228       0.11074
    10    C    2  pz     Val( 2p)     0.99218       0.09997

    11    C    3  S      Cor( 1S)     1.99989     -11.03389
    12    C    3  S      Val( 2S)     1.08707      -0.21537
    13    C    3  px     Val( 2p)     0.94436       0.09599
    14    C    3  py     Val( 2p)     0.83308       0.12294
    15    C    3  pz     Val( 2p)     0.99385       0.08162

    16    C    4  S      Cor( 1S)     1.99995     -10.97653
    17    C    4  S      Val( 2S)     1.08454      -0.19101
    18    C    4  px     Val( 2p)     0.99516       0.09242
    19    C    4  py     Val( 2p)     0.98777       0.09686
    20    C    4  pz     Val( 2p)     0.99978       0.09172

    21    C    5  S      Cor( 1S)     1.99995     -10.98805
    22    C    5  S      Val( 2S)     1.10551      -0.21380
    23    C    5  px     Val( 2p)     0.96241       0.10377
    24    C    5  py     Val( 2p)     0.96323       0.10350
    25    C    5  pz     Val( 2p)     0.98698       0.09775

    26    C    6  S      Cor( 1S)     1.99996     -10.97534
    27    C    6  S      Val( 2S)     1.08412      -0.18975
    28    C    6  px     Val( 2p)     0.98571       0.09552
    29    C    6  py     Val( 2p)     0.99497       0.09488
    30    C    6  pz     Val( 2p)     1.00026       0.09327

    31    C    7  S      Cor( 1S)     1.99996     -10.97541
    32    C    7  S      Val( 2S)     1.09320      -0.19948
    33    C    7  px     Val( 2p)     0.99091       0.08666
    34    C    7  py     Val( 2p)     0.99421       0.08931
    35    C    7  pz     Val( 2p)     1.01286       0.08701

    36    O    8  S      Cor( 1S)     1.99999     -20.14219
    37    O    8  S      Val( 2S)     1.74923      -0.99814
    38    O    8  px     Val( 2p)     1.88958      -0.33782
    39    O    8  py     Val( 2p)     1.37328      -0.12436
    40    O    8  pz     Val( 2p)     1.31975      -0.11060

    41    C    9  S      Cor( 1S)     1.99996     -10.98852
    42    C    9  S      Val( 2S)     1.08559      -0.19437
    43    C    9  px     Val( 2p)     0.95401       0.11170
    44    C    9  py     Val( 2p)     0.99324       0.10417
    45    C    9  pz     Val( 2p)     0.94794       0.11652

    46    C   10  S      Cor( 1S)     1.99997     -10.96270
    47    C   10  S      Val( 2S)     1.07957      -0.17945
    48    C   10  px     Val( 2p)     1.03089       0.08305
    49    C   10  py     Val( 2p)     1.01995       0.08838
    50    C   10  pz     Val( 2p)     1.00158       0.08887

    51    C   11  S      Cor( 1S)     1.99997     -10.96317
    52    C   11  S      Val( 2S)     1.08122      -0.18114
    53    C   11  px     Val( 2p)     1.01605       0.08486
    54    C   11  py     Val( 2p)     1.02063       0.08843
    55    C   11  pz     Val( 2p)     1.01086       0.08722

    56    H   12  S      Val( 1S)     0.96578       0.07109

    57    H   13  S      Val( 1S)     0.96334       0.07261

    58    H   14  S      Val( 1S)     0.96388       0.07331

    59    H   15  S      Val( 1S)     0.97542       0.06584

    60    H   16  S      Val( 1S)     0.97554       0.05928

    61    H   17  S      Val( 1S)     0.97374       0.06713

    62    H   18  S      Val( 1S)     0.96690       0.07353

    63    H   19  S      Val( 1S)     0.98428       0.05689

    64    H   20  S      Val( 1S)     0.96843       0.06997

    65    H   21  S      Val( 1S)     0.97209       0.07006

    66    H   22  S      Val( 1S)     0.97692       0.05937

    67    H   23  S      Val( 1S)     0.96303       0.07213

    68    H   24  S      Val( 1S)     0.81233       0.07452

    69    H   25  S      Val( 1S)     0.96931       0.07611

    70    H   26  S      Val( 1S)     0.96476       0.07629

    71    H   27  S      Val( 1S)     0.96378       0.07873

    72    H   28  S      Val( 1S)     0.96184       0.07687

    73    H   29  S      Val( 1S)     0.96550       0.07614

    74    H   30  S      Val( 1S)     0.96568       0.07473

    75    H   31  S      Val( 1S)     0.96300       0.07597


 Summary of Natural Population Analysis:                  
                                                          
                                       Natural Population 
                Natural  -----------------------------------------------
    Atom  No    Charge         Core      Valence    Rydberg      Total
 -----------------------------------------------------------------------
      C    1   -0.12580      1.99998     4.12582    0.00000     6.12580
      C    2    0.01431      1.99997     3.98573    0.00000     5.98569
      C    3    0.14176      1.99989     3.85835    0.00000     5.85824
      C    4   -0.06720      1.99995     4.06725    0.00000     6.06720
      C    5   -0.01808      1.99995     4.01812    0.00000     6.01808
      C    6   -0.06502      1.99996     4.06506    0.00000     6.06502
      C    7   -0.09114      1.99996     4.09118    0.00000     6.09114
      O    8   -0.33182      1.99999     6.33183    0.00000     8.33182
      C    9    0.01926      1.99996     3.98078    0.00000     5.98074
      C   10   -0.13197      1.99997     4.13200    0.00000     6.13197
      C   11   -0.12873      1.99997     4.12876    0.00000     6.12873
      H   12    0.03422      0.00000     0.96578    0.00000     0.96578
      H   13    0.03666      0.00000     0.96334    0.00000     0.96334
      H   14    0.03612      0.00000     0.96388    0.00000     0.96388
      H   15    0.02458      0.00000     0.97542    0.00000     0.97542
      H   16    0.02446      0.00000     0.97554    0.00000     0.97554
      H   17    0.02626      0.00000     0.97374    0.00000     0.97374
      H   18    0.03310      0.00000     0.96690    0.00000     0.96690
      H   19    0.01572      0.00000     0.98428    0.00000     0.98428
      H   20    0.03157      0.00000     0.96843    0.00000     0.96843
      H   21    0.02791      0.00000     0.97209    0.00000     0.97209
      H   22    0.02308      0.00000     0.97692    0.00000     0.97692
      H   23    0.03697      0.00000     0.96303    0.00000     0.96303
      H   24    0.18767      0.00000     0.81233    0.00000     0.81233
      H   25    0.03069      0.00000     0.96931    0.00000     0.96931
      H   26    0.03524      0.00000     0.96476    0.00000     0.96476
      H   27    0.03622      0.00000     0.96378    0.00000     0.96378
      H   28    0.03816      0.00000     0.96184    0.00000     0.96184
      H   29    0.03450      0.00000     0.96550    0.00000     0.96550
      H   30    0.03432      0.00000     0.96568    0.00000     0.96568
      H   31    0.03700      0.00000     0.96300    0.00000     0.96300
 =======================================================================
   * Total *    0.00000     21.99955    66.00045    0.00000    88.00000

                                 Natural Population      
 --------------------------------------------------------
   Core                      21.99955 ( 99.9980% of  22)
   Valence                   66.00045 (100.0007% of  66)
   Natural Minimal Basis     88.00000 (100.0000% of  88)
   Natural Rydberg Basis      0.00000 (  0.0000% of  88)
 --------------------------------------------------------

    Atom  No          Natural Electron Configuration
 ----------------------------------------------------------------------------
      C    1      [core]2S( 1.08)2p( 3.05)
      C    2      [core]2S( 1.08)2p( 2.90)
      C    3      [core]2S( 1.09)2p( 2.77)
      C    4      [core]2S( 1.08)2p( 2.98)
      C    5      [core]2S( 1.11)2p( 2.91)
      C    6      [core]2S( 1.08)2p( 2.98)
      C    7      [core]2S( 1.09)2p( 3.00)
      O    8      [core]2S( 1.75)2p( 4.58)
      C    9      [core]2S( 1.09)2p( 2.90)
      C   10      [core]2S( 1.08)2p( 3.05)
      C   11      [core]2S( 1.08)2p( 3.05)
      H   12            1S( 0.97)
      H   13            1S( 0.96)
      H   14            1S( 0.96)
      H   15            1S( 0.98)
      H   16            1S( 0.98)
      H   17            1S( 0.97)
      H   18            1S( 0.97)
      H   19            1S( 0.98)
      H   20            1S( 0.97)
      H   21            1S( 0.97)
      H   22            1S( 0.98)
      H   23            1S( 0.96)
      H   24            1S( 0.81)
      H   25            1S( 0.97)
      H   26            1S( 0.96)
      H   27            1S( 0.96)
      H   28            1S( 0.96)
      H   29            1S( 0.97)
      H   30            1S( 0.97)
      H   31            1S( 0.96)


 NATURAL BOND ORBITAL ANALYSIS:

                       Occupancies       Lewis Structure    Low   High
           Occ.    -------------------  -----------------   occ   occ
  Cycle   Thresh.   Lewis   Non-Lewis     CR  BD  3C  LP    (L)   (NL)   Dev
 =============================================================================
   1(1)    1.90    87.63957   0.36043     11  31   0   2     0      0    0.02
 -----------------------------------------------------------------------------

 Structure accepted: No low occupancy Lewis orbitals

 --------------------------------------------------------
   Core                     21.99955 ( 99.998% of  22)
   Valence Lewis            65.64002 ( 99.455% of  66)
  ==================       ============================
   Total Lewis              87.63957 ( 99.590% of  88)
  -----------------------------------------------------
   Valence non-Lewis         0.36043 (  0.410% of  88)
   Rydberg non-Lewis         0.00000 (  0.000% of  88)
  ==================       ============================
   Total non-Lewis           0.36043 (  0.410% of  88)
 --------------------------------------------------------


       (Occupancy)   Bond orbital/ Coefficients/ Hybrids
 ---------------------------------------------------------------------------------
     1. (1.99039) BD ( 1) C   1 - C   2  
                ( 50.88%)   0.7133* C   1 s( 25.72%)p 2.89( 74.28%)
                                            0.0001  0.5072 -0.6793  0.2162  0.4843
                ( 49.12%)   0.7008* C   2 s( 24.96%)p 3.01( 75.04%)
                                            0.0000  0.4996  0.6623 -0.2232 -0.5118
     2. (1.99512) BD ( 1) C   1 - H  12  
                ( 51.75%)   0.7194* C   1 s( 24.82%)p 3.03( 75.18%)
                                            0.0000  0.4982 -0.2510 -0.1165 -0.8218
                ( 48.25%)   0.6946* H  12 s(100.00%)
                                            1.0000
     3. (1.99502) BD ( 1) C   1 - H  13  
                ( 51.84%)   0.7200* C   1 s( 24.76%)p 3.04( 75.24%)
                                            0.0000  0.4976  0.5942  0.6312  0.0307
                ( 48.16%)   0.6940* H  13 s(100.00%)
                                            1.0000
     4. (1.99495) BD ( 1) C   1 - H  14  
                ( 51.82%)   0.7199* C   1 s( 24.70%)p 3.05( 75.30%)
                                            0.0000  0.4970  0.3499 -0.7357  0.2987
                ( 48.18%)   0.6941* H  14 s(100.00%)
                                            1.0000
     5. (1.98557) BD ( 1) C   2 - C   6  
                ( 49.69%)   0.7049* C   2 s( 25.32%)p 2.95( 74.68%)
                                            0.0000  0.5032 -0.6085 -0.6130 -0.0288
                ( 50.31%)   0.7093* C   6 s( 25.42%)p 2.93( 74.58%)
                                            0.0001  0.5042  0.5948  0.6254 -0.0285
     6. (1.98355) BD ( 1) C   2 - C   7  
                ( 49.38%)   0.7027* C   2 s( 25.29%)p 2.95( 74.71%)
                                            0.0000  0.5029 -0.3305  0.7533 -0.2653
                ( 50.62%)   0.7115* C   7 s( 25.58%)p 2.91( 74.42%)
                                            0.0001  0.5057  0.3015 -0.7705  0.2444
     7. (1.98612) BD ( 1) C   2 - H  15  
                ( 51.14%)   0.7151* C   2 s( 24.43%)p 3.09( 75.57%)
                                            0.0000  0.4943  0.2863  0.0832  0.8166
                ( 48.86%)   0.6990* H  15 s(100.00%)
                                            1.0000
     8. (1.98243) BD ( 1) C   3 - C   5  
                ( 49.97%)   0.7069* C   3 s( 25.56%)p 2.91( 74.44%)
                                            0.0001  0.5056 -0.4556 -0.5789 -0.4491
                ( 50.03%)   0.7074* C   5 s( 25.11%)p 2.98( 74.89%)
                                            0.0000  0.5011  0.4578  0.5520  0.4844
     9. (1.98728) BD ( 1) C   3 - C   7  
                ( 49.29%)   0.7021* C   3 s( 25.42%)p 2.93( 74.58%)
                                            0.0000  0.5042  0.8393 -0.0732 -0.1896
                ( 50.71%)   0.7121* C   7 s( 25.10%)p 2.98( 74.90%)
                                            0.0000  0.5010 -0.8428  0.0586  0.1876
    10. (1.98754) BD ( 1) C   3 - O   8  
                ( 41.09%)   0.6410* C   3 s( 22.47%)p 3.45( 77.53%)
                                           -0.0001  0.4740 -0.2673  0.8057 -0.2338
                ( 58.91%)   0.7675* O   8 s( 16.57%)p 5.03( 83.43%)
                                            0.0000  0.4071  0.2939 -0.8539  0.1370
    11. (1.98575) BD ( 1) C   3 - H  16  
                ( 51.36%)   0.7167* C   3 s( 26.55%)p 2.77( 73.45%)
                                            0.0000  0.5153 -0.1283 -0.1016  0.8412
                ( 48.64%)   0.6974* H  16 s(100.00%)
                                            1.0000
    12. (1.98461) BD ( 1) C   4 - C   5  
                ( 50.35%)   0.7096* C   4 s( 25.53%)p 2.92( 74.47%)
                                            0.0001  0.5053 -0.4113  0.7518  0.1014
                ( 49.65%)   0.7046* C   5 s( 25.67%)p 2.90( 74.33%)
                                            0.0000  0.5066  0.3957 -0.7655 -0.0258
    13. (1.99081) BD ( 1) C   4 - C   6  
                ( 50.05%)   0.7074* C   4 s( 25.24%)p 2.96( 74.76%)
                                            0.0000  0.5024  0.5938 -0.0965  0.6210
                ( 49.95%)   0.7068* C   6 s( 25.23%)p 2.96( 74.77%)
                                            0.0000  0.5023 -0.5922  0.1303 -0.6164
    14. (1.99100) BD ( 1) C   4 - H  17  
                ( 51.30%)   0.7163* C   4 s( 24.06%)p 3.16( 75.94%)
                                            0.0000  0.4905  0.3956 -0.0085 -0.7764
                ( 48.70%)   0.6978* H  17 s(100.00%)
                                            1.0000
    15. (1.98897) BD ( 1) C   4 - H  18  
                ( 51.64%)   0.7186* C   4 s( 25.17%)p 2.97( 74.83%)
                                            0.0000  0.5017 -0.5672 -0.6522  0.0351
                ( 48.36%)   0.6954* H  18 s(100.00%)
                                            1.0000
    16. (1.98034) BD ( 1) C   5 - C   9  
                ( 50.20%)   0.7085* C   5 s( 25.28%)p 2.96( 74.72%)
                                            0.0001  0.5028 -0.7936 -0.0887  0.3309
                ( 49.80%)   0.7057* C   9 s( 25.30%)p 2.95( 74.70%)
                                            0.0001  0.5029  0.8195  0.0221 -0.2737
    17. (1.98336) BD ( 1) C   5 - H  19  
                ( 50.66%)   0.7118* C   5 s( 23.94%)p 3.18( 76.06%)
                                            0.0000  0.4893 -0.0631  0.3185 -0.8094
                ( 49.34%)   0.7024* H  19 s(100.00%)
                                            1.0000
    18. (1.98981) BD ( 1) C   6 - H  20  
                ( 51.56%)   0.7180* C   6 s( 25.15%)p 2.98( 74.85%)
                                            0.0000  0.5015  0.3781 -0.7693 -0.1173
                ( 48.44%)   0.6960* H  20 s(100.00%)
                                            1.0000
    19. (1.99083) BD ( 1) C   6 - H  21  
                ( 51.40%)   0.7169* C   6 s( 24.20%)p 3.13( 75.80%)
                                            0.0000  0.4919 -0.3905  0.0101  0.7781
                ( 48.60%)   0.6971* H  21 s(100.00%)
                                            1.0000
    20. (1.98993) BD ( 1) C   7 - H  22  
                ( 51.19%)   0.7154* C   7 s( 24.41%)p 3.10( 75.59%)
                                            0.0000  0.4940  0.1095  0.0951 -0.8573
                ( 48.81%)   0.6987* H  22 s(100.00%)
                                            1.0000
    21. (1.98994) BD ( 1) C   7 - H  23  
                ( 51.81%)   0.7198* C   7 s( 24.92%)p 3.01( 75.08%)
                                            0.0000  0.4992  0.4322  0.6276  0.4125
                ( 48.19%)   0.6942* H  23 s(100.00%)
                                            1.0000
    22. (1.98951) BD ( 1) O   8 - H  24  
                ( 59.44%)   0.7709* O   8 s( 16.82%)p 4.94( 83.18%)
                                            0.0000 -0.4102 -0.1702 -0.1115  0.8890
                ( 40.56%)   0.6369* H  24 s(100.00%)
                                           -1.0000
    23. (1.99014) BD ( 1) C   9 - C  10  
                ( 48.94%)   0.6996* C   9 s( 25.26%)p 2.96( 74.74%)
                                            0.0000  0.5026 -0.0449 -0.4184  0.7552
                ( 51.06%)   0.7145* C  10 s( 25.89%)p 2.86( 74.11%)
                                            0.0001  0.5088  0.0875  0.3949 -0.7600
    24. (1.98912) BD ( 1) C   9 - C  11  
                ( 48.91%)   0.6994* C   9 s( 24.90%)p 3.02( 75.10%)
                                            0.0000  0.4990 -0.4912 -0.4069 -0.5867
                ( 51.09%)   0.7147* C  11 s( 25.79%)p 2.88( 74.21%)
                                            0.0001  0.5078  0.5226  0.3728  0.5745
    25. (1.98387) BD ( 1) C   9 - H  25  
                ( 51.43%)   0.7171* C   9 s( 24.54%)p 3.07( 75.46%)
                                            0.0000  0.4954 -0.2917  0.8118  0.1026
                ( 48.57%)   0.6969* H  25 s(100.00%)
                                            1.0000
    26. (1.99508) BD ( 1) C  10 - H  26  
                ( 51.81%)   0.7198* C  10 s( 24.81%)p 3.03( 75.19%)
                                            0.0000  0.4981  0.2540 -0.8264 -0.0668
                ( 48.19%)   0.6942* H  26 s(100.00%)
                                            1.0000
    27. (1.99409) BD ( 1) C  10 - H  27  
                ( 51.83%)   0.7199* C  10 s( 24.79%)p 3.03( 75.21%)
                                            0.0000  0.4979  0.4845  0.4007  0.5973
                ( 48.17%)   0.6940* H  27 s(100.00%)
                                            1.0000
    28. (1.99422) BD ( 1) C  10 - H  28  
                ( 51.89%)   0.7204* C  10 s( 24.52%)p 3.08( 75.48%)
                                            0.0000  0.4952 -0.8325  0.0225  0.2474
                ( 48.11%)   0.6936* H  28 s(100.00%)
                                            1.0000
    29. (1.99506) BD ( 1) C  11 - H  29  
                ( 51.78%)   0.7196* C  11 s( 24.90%)p 3.02( 75.10%)
                                            0.0000  0.4990  0.2261 -0.8296 -0.1084
                ( 48.22%)   0.6944* H  29 s(100.00%)
                                            1.0000
    30. (1.99500) BD ( 1) C  11 - H  30  
                ( 51.73%)   0.7193* C  11 s( 24.67%)p 3.05( 75.33%)
                                            0.0000  0.4967  0.0583  0.4140 -0.7606
                ( 48.27%)   0.6947* H  30 s(100.00%)
                                            1.0000
    31. (1.99467) BD ( 1) C  11 - H  31  
                ( 51.85%)   0.7201* C  11 s( 24.65%)p 3.06( 75.35%)
                                            0.0000  0.4965 -0.8200  0.0383  0.2822
                ( 48.15%)   0.6939* H  31 s(100.00%)
                                            1.0000
    32. (1.99997) CR ( 1) C   1           s(100.00%)
                                            1.0000  0.0000  0.0001  0.0000  0.0000
    33. (1.99996) CR ( 1) C   2           s(100.00%)
                                            1.0000  0.0000  0.0000  0.0000  0.0000
    34. (1.99989) CR ( 1) C   3           s(100.00%)
                                            1.0000  0.0000  0.0000  0.0001  0.0000
    35. (1.99995) CR ( 1) C   4           s(100.00%)
                                            1.0000  0.0000  0.0000  0.0000  0.0000
    36. (1.99995) CR ( 1) C   5           s(100.00%)
                                            1.0000  0.0000  0.0000  0.0000  0.0000
    37. (1.99996) CR ( 1) C   6           s(100.00%)
                                            1.0000  0.0000  0.0000 -0.0001  0.0000
    38. (1.99996) CR ( 1) C   7           s(100.00%)
                                            1.0000  0.0000  0.0000  0.0001  0.0000
    39. (1.99999) CR ( 1) O   8           s(100.00%)
                                            1.0000  0.0000  0.0000  0.0000  0.0000
    40. (1.99996) CR ( 1) C   9           s(100.00%)
                                            1.0000  0.0000 -0.0001  0.0000  0.0000
    41. (1.99997) CR ( 1) C  10           s(100.00%)
                                            1.0000  0.0000  0.0000  0.0000  0.0001
    42. (1.99997) CR ( 1) C  11           s(100.00%)
                                            1.0000  0.0000 -0.0001  0.0000 -0.0001
    43. (1.99363) LP ( 1) O   8           s( 66.60%)p 0.50( 33.40%)
                                            0.0000  0.8161 -0.2350  0.3688  0.3778
    44. (1.97233) LP ( 2) O   8           s(  0.00%)p 1.00(100.00%)
                                            0.0000  0.0026  0.9107  0.3499  0.2194
    45. (0.00969) BD*( 1) C   1 - C   2  
                ( 49.12%)   0.7008* C   1 s( 25.72%)p 2.89( 74.28%)
                                           -0.0001 -0.5072  0.6793 -0.2162 -0.4843
                ( 50.88%)  -0.7133* C   2 s( 24.96%)p 3.01( 75.04%)
                                            0.0000 -0.4996 -0.6623  0.2232  0.5118
    46. (0.00603) BD*( 1) C   1 - H  12  
                ( 48.25%)   0.6946* C   1 s( 24.82%)p 3.03( 75.18%)
                                            0.0000 -0.4982  0.2510  0.1165  0.8218
                ( 51.75%)  -0.7194* H  12 s(100.00%)
                                           -1.0000
    47. (0.00503) BD*( 1) C   1 - H  13  
                ( 48.16%)   0.6940* C   1 s( 24.76%)p 3.04( 75.24%)
                                            0.0000 -0.4976 -0.5942 -0.6312 -0.0307
                ( 51.84%)  -0.7200* H  13 s(100.00%)
                                           -1.0000
    48. (0.00519) BD*( 1) C   1 - H  14  
                ( 48.18%)   0.6941* C   1 s( 24.70%)p 3.05( 75.30%)
                                            0.0000 -0.4970 -0.3499  0.7357 -0.2987
                ( 51.82%)  -0.7199* H  14 s(100.00%)
                                           -1.0000
    49. (0.01696) BD*( 1) C   2 - C   6  
                ( 50.31%)   0.7093* C   2 s( 25.32%)p 2.95( 74.68%)
                                            0.0000  0.5032 -0.6085 -0.6130 -0.0288
                ( 49.69%)  -0.7049* C   6 s( 25.42%)p 2.93( 74.58%)
                                            0.0001  0.5042  0.5948  0.6254 -0.0285
    50. (0.01567) BD*( 1) C   2 - C   7  
                ( 50.62%)   0.7115* C   2 s( 25.29%)p 2.95( 74.71%)
                                            0.0000  0.5029 -0.3305  0.7533 -0.2653
                ( 49.38%)  -0.7027* C   7 s( 25.58%)p 2.91( 74.42%)
                                            0.0001  0.5057  0.3015 -0.7705  0.2444
    51. (0.00987) BD*( 1) C   2 - H  15  
                ( 48.86%)   0.6990* C   2 s( 24.43%)p 3.09( 75.57%)
                                            0.0000 -0.4943 -0.2863 -0.0832 -0.8166
                ( 51.14%)  -0.7151* H  15 s(100.00%)
                                           -1.0000
    52. (0.03308) BD*( 1) C   3 - C   5  
                ( 50.03%)   0.7074* C   3 s( 25.56%)p 2.91( 74.44%)
                                            0.0001  0.5056 -0.4556 -0.5789 -0.4491
                ( 49.97%)  -0.7069* C   5 s( 25.11%)p 2.98( 74.89%)
                                            0.0000  0.5011  0.4578  0.5520  0.4844
    53. (0.02601) BD*( 1) C   3 - C   7  
                ( 50.71%)   0.7121* C   3 s( 25.42%)p 2.93( 74.58%)
                                            0.0000  0.5042  0.8393 -0.0732 -0.1896
                ( 49.29%)  -0.7021* C   7 s( 25.10%)p 2.98( 74.90%)
                                            0.0000  0.5010 -0.8428  0.0586  0.1876
    54. (0.02181) BD*( 1) C   3 - O   8  
                ( 58.91%)   0.7675* C   3 s( 22.47%)p 3.45( 77.53%)
                                           -0.0001  0.4740 -0.2673  0.8057 -0.2338
                ( 41.09%)  -0.6410* O   8 s( 16.57%)p 5.03( 83.43%)
                                            0.0000  0.4071  0.2939 -0.8539  0.1370
    55. (0.01880) BD*( 1) C   3 - H  16  
                ( 48.64%)   0.6974* C   3 s( 26.55%)p 2.77( 73.45%)
                                            0.0000 -0.5153  0.1283  0.1016 -0.8412
                ( 51.36%)  -0.7167* H  16 s(100.00%)
                                           -1.0000
    56. (0.01762) BD*( 1) C   4 - C   5  
                ( 49.65%)   0.7046* C   4 s( 25.53%)p 2.92( 74.47%)
                                           -0.0001 -0.5053  0.4113 -0.7518 -0.1014
                ( 50.35%)  -0.7096* C   5 s( 25.67%)p 2.90( 74.33%)
                                            0.0000 -0.5066 -0.3957  0.7655  0.0258
    57. (0.01117) BD*( 1) C   4 - C   6  
                ( 49.95%)   0.7068* C   4 s( 25.24%)p 2.96( 74.76%)
                                            0.0000 -0.5024 -0.5938  0.0965 -0.6210
                ( 50.05%)  -0.7074* C   6 s( 25.23%)p 2.96( 74.77%)
                                            0.0000 -0.5023  0.5922 -0.1303  0.6164
    58. (0.00809) BD*( 1) C   4 - H  17  
                ( 48.70%)   0.6978* C   4 s( 24.06%)p 3.16( 75.94%)
                                            0.0000 -0.4905 -0.3956  0.0085  0.7764
                ( 51.30%)  -0.7163* H  17 s(100.00%)
                                           -1.0000
    59. (0.00990) BD*( 1) C   4 - H  18  
                ( 48.36%)   0.6954* C   4 s( 25.17%)p 2.97( 74.83%)
                                            0.0000 -0.5017  0.5672  0.6522 -0.0351
                ( 51.64%)  -0.7186* H  18 s(100.00%)
                                           -1.0000
    60. (0.02206) BD*( 1) C   5 - C   9  
                ( 49.80%)   0.7057* C   5 s( 25.28%)p 2.96( 74.72%)
                                           -0.0001 -0.5028  0.7936  0.0887 -0.3309
                ( 50.20%)  -0.7085* C   9 s( 25.30%)p 2.95( 74.70%)
                                           -0.0001 -0.5029 -0.8195 -0.0221  0.2737
    61. (0.01129) BD*( 1) C   5 - H  19  
                ( 49.34%)   0.7024* C   5 s( 23.94%)p 3.18( 76.06%)
                                            0.0000 -0.4893  0.0631 -0.3185  0.8094
                ( 50.66%)  -0.7118* H  19 s(100.00%)
                                           -1.0000
    62. (0.00868) BD*( 1) C   6 - H  20  
                ( 48.44%)   0.6960* C   6 s( 25.15%)p 2.98( 74.85%)
                                            0.0000 -0.5015 -0.3781  0.7693  0.1173
                ( 51.56%)  -0.7180* H  20 s(100.00%)
                                           -1.0000
    63. (0.00878) BD*( 1) C   6 - H  21  
                ( 48.60%)   0.6971* C   6 s( 24.20%)p 3.13( 75.80%)
                                            0.0000 -0.4919  0.3905 -0.0101 -0.7781
                ( 51.40%)  -0.7169* H  21 s(100.00%)
                                           -1.0000
    64. (0.01086) BD*( 1) C   7 - H  22  
                ( 48.81%)   0.6987* C   7 s( 24.41%)p 3.10( 75.59%)
                                            0.0000 -0.4940 -0.1095 -0.0951  0.8573
                ( 51.19%)  -0.7154* H  22 s(100.00%)
                                           -1.0000
    65. (0.00803) BD*( 1) C   7 - H  23  
                ( 48.19%)   0.6942* C   7 s( 24.92%)p 3.01( 75.08%)
                                            0.0000 -0.4992 -0.4322 -0.6276 -0.4125
                ( 51.81%)  -0.7198* H  23 s(100.00%)
                                           -1.0000
    66. (0.00893) BD*( 1) O   8 - H  24  
                ( 40.56%)   0.6369* O   8 s( 16.82%)p 4.94( 83.18%)
                                            0.0000  0.4102  0.1702  0.1115 -0.8890
                ( 59.44%)  -0.7709* H  24 s(100.00%)
                                            1.0000
    67. (0.01080) BD*( 1) C   9 - C  10  
                ( 51.06%)   0.7145* C   9 s( 25.26%)p 2.96( 74.74%)
                                            0.0000  0.5026 -0.0449 -0.4184  0.7552
                ( 48.94%)  -0.6996* C  10 s( 25.89%)p 2.86( 74.11%)
                                            0.0001  0.5088  0.0875  0.3949 -0.7600
    68. (0.01029) BD*( 1) C   9 - C  11  
                ( 51.09%)   0.7147* C   9 s( 24.90%)p 3.02( 75.10%)
                                            0.0000  0.4990 -0.4912 -0.4069 -0.5867
                ( 48.91%)  -0.6994* C  11 s( 25.79%)p 2.88( 74.21%)
                                            0.0001  0.5078  0.5226  0.3728  0.5745
    69. (0.01115) BD*( 1) C   9 - H  25  
                ( 48.57%)   0.6969* C   9 s( 24.54%)p 3.07( 75.46%)
                                            0.0000 -0.4954  0.2917 -0.8118 -0.1026
                ( 51.43%)  -0.7171* H  25 s(100.00%)
                                           -1.0000
    70. (0.00659) BD*( 1) C  10 - H  26  
                ( 48.19%)   0.6942* C  10 s( 24.81%)p 3.03( 75.19%)
                                            0.0000 -0.4981 -0.2540  0.8264  0.0668
                ( 51.81%)  -0.7198* H  26 s(100.00%)
                                           -1.0000
    71. (0.00621) BD*( 1) C  10 - H  27  
                ( 48.17%)   0.6940* C  10 s( 24.79%)p 3.03( 75.21%)
                                            0.0000 -0.4979 -0.4845 -0.4007 -0.5973
                ( 51.83%)  -0.7199* H  27 s(100.00%)
                                           -1.0000
    72. (0.00484) BD*( 1) C  10 - H  28  
[...]
   21      -0.1257       -0.5792       0.4535        -1.0886       0.9629
   22      20.5127        8.2168      12.2959         6.0566      14.4561
   39     271.1743       -0.0066     271.1809        -0.0028     271.1771
   43      32.2910        1.4548      30.8362        -5.1515      37.4425
   44       5.2242      -33.2119      38.4361       -34.6383      39.8625
 Sum      348.5476      -23.3120     371.8596       -29.9361     378.4837

 Contributions to Isotropic shielding for atom    9 (   213.9114 ppm):
                         Standard Origin              Atomic Origin
 NLMO      Total    Paramagnetic  Diamagnetic   Paramagnetic  Diamagnetic
   10       0.0273       -0.2366       0.2639        -1.0581       1.0854
   15      -0.1807       -0.5605       0.3799        -1.1183       0.9376
   16       5.6944       -9.2515      14.9459        -1.9780       7.6724
   17       0.4198        0.0448       0.3750        -0.5865       1.0063
   23      -0.3655       -6.5948       6.2293        -7.8569       7.4914
   24      -2.0252       -4.4762       2.4511        -9.4640       7.4389
   25       5.7267       -1.7454       7.4721        -5.3168      11.0435
   26       0.8555       -0.2789       1.1344        -0.1709       1.0264
   27       0.6204       -0.5565       1.1769        -0.3899       1.0104
   28       0.6042       -0.1709       0.7751        -0.4330       1.0372
   29       1.1162       -0.2662       1.3823         0.0963       1.0198
   30       0.7046       -0.6446       1.3491        -0.3263       1.0309
   31       0.6447       -0.3788       1.0235        -0.3895       1.0343
   40     199.9258       -0.0016     199.9274         0.0024     199.9234
 Sum      213.7682      -25.1176     238.8858       -28.9896     242.7578

 Contributions to Isotropic shielding for atom   10 (   224.3838 ppm):
                         Standard Origin              Atomic Origin
 NLMO      Total    Paramagnetic  Diamagnetic   Paramagnetic  Diamagnetic
   23       3.9773       -9.0570      13.0344        -4.0356       8.0130
   24      -0.3974        0.0007      -0.3981        -1.0670       0.6697
   25       0.3425       -0.1048       0.4473        -0.6734       1.0158
   26       6.7275       -4.2312      10.9587        -4.3911      11.1186
   27       6.9901       -5.3438      12.3339        -4.1195      11.1096
   28       6.0263        3.3994       2.6269        -5.0856      11.1119
   41     200.0738       -0.0022     200.0760         0.0015     200.0723
 Sum      223.7401      -15.3389     239.0790       -19.3708     243.1108

 Contributions to Isotropic shielding for atom   11 (   221.2490 ppm):
                         Standard Origin              Atomic Origin
 NLMO      Total    Paramagnetic  Diamagnetic   Paramagnetic  Diamagnetic
   17      -0.2025       -0.0672      -0.1353        -1.1091       0.9065
   23      -0.5312        0.0572      -0.5884        -1.2184       0.6872
   24       4.5930      -11.6852      16.2782        -3.4452       8.0382
   25       0.3101        0.1410       0.1691        -0.7400       1.0501
   29       6.3433       -4.1373      10.4806        -4.7827      11.1261
   30       5.4273       -3.6937       9.1210        -5.6438      11.0711
   31       4.9136        2.5060       2.4076        -6.2009      11.1145
   42     200.0751       -0.0038     200.0789         0.0023     200.0728
 Sum      220.9288      -16.8830     237.8118       -23.1378     244.0666

 Contributions to Isotropic shielding for atom   12 (    32.6493 ppm):
                         Standard Origin              Atomic Origin
 NLMO      Total    Paramagnetic  Diamagnetic   Paramagnetic  Diamagnetic
    1       1.6970       -1.4592       3.1562         0.8150       0.8820
    2      26.3577        0.3484      26.0093         0.4029      25.9548
    3       1.9442        1.5074       0.4368         0.1223       1.8219
    4       1.9125        1.4651       0.4474         0.0910       1.8215
   20      -0.2375       -0.1341      -0.1034        -1.0252       0.7876
 Sum       31.6738        1.7275      29.9463         0.4061      31.2677

 Contributions to Isotropic shielding for atom   13 (    32.4493 ppm):
                         Standard Origin              Atomic Origin
 NLMO      Total    Paramagnetic  Diamagnetic   Paramagnetic  Diamagnetic
    1       1.3942       -0.2882       1.6824         0.4076       0.9865
    2       2.0012        1.1816       0.8196         0.1686       1.8326
    3      26.3482        0.1262      26.2220         0.4409      25.9073
    4       1.8189        2.3781      -0.5591        -0.0150       1.8339
    6      -0.1409        0.6523      -0.7932        -1.1094       0.9684
 Sum       31.4216        4.0501      27.3715        -0.1073      31.5289

 Contributions to Isotropic shielding for atom   14 (    32.5604 ppm):
                         Standard Origin              Atomic Origin
 NLMO      Total    Paramagnetic  Diamagnetic   Paramagnetic  Diamagnetic
    1       1.3977       -0.2955       1.6932         0.4211       0.9766
    2       1.9759        1.1643       0.8117         0.1342       1.8417
    3       1.9033        2.4555      -0.5521         0.0570       1.8463
    4      26.3958        0.1547      26.2410         0.4731      25.9226
    5      -0.1322        0.5831      -0.7152        -1.0292       0.8970
 Sum       31.5406        4.0620      27.4786         0.0563      31.4843

 Contributions to Isotropic shielding for atom   15 (    32.3487 ppm):
                         Standard Origin              Atomic Origin
 NLMO      Total    Paramagnetic  Diamagnetic   Paramagnetic  Diamagnetic
    1       0.7648        2.4264      -1.6616        -0.2402       1.0050
    5       1.3484        0.6073       0.7411         0.3021       1.0463
    6       1.3728        0.7532       0.6196         0.4149       0.9579
    7      26.4586       -0.1990      26.6576         0.4318      26.0269
   19      -0.0594       -0.1164       0.0570        -1.1931       1.1337
   21      -0.0391       -0.1677       0.1286        -1.1321       1.0930
 Sum       29.8461        3.3038      26.5423        -1.4166      31.2627

 Contributions to Isotropic shielding for atom   16 (    31.5713 ppm):
                         Standard Origin              Atomic Origin
 NLMO      Total    Paramagnetic  Diamagnetic   Paramagnetic  Diamagnetic
    8       1.1958       -0.1233       1.3191         0.3723       0.8235
   10       0.9335        0.7200       0.2135        -1.1129       2.0463
   11      26.2767        0.4787      25.7980         0.7027      25.5739
   16      -0.0646       -0.1719       0.1072        -1.0144       0.9498
   23       0.0085       -0.6265       0.6350        -1.0248       1.0332
   27      -0.4148       -1.2950       0.8802        -0.8556       0.4408
 Sum       27.9350       -1.0180      28.9529        -2.9326      30.8675

 Contributions to Isotropic shielding for atom   17 (    32.6356 ppm):
                         Standard Origin              Atomic Origin
 NLMO      Total    Paramagnetic  Diamagnetic   Paramagnetic  Diamagnetic
    2      -0.2233       -1.2225       0.9993        -0.7695       0.5462
   12       1.3884        0.3798       1.0086         0.3365       1.0519
   13       1.0786        0.9504       0.1282         0.0638       1.0148
   14      26.4633        0.0053      26.4580         0.3903      26.0730
   15       2.0267        1.4517       0.5750         0.1920       1.8346
   17      -0.1640       -0.4316       0.2676        -1.3082       1.1442
 Sum       30.5697        1.1331      29.4366        -1.0950      31.6647

 Contributions to Isotropic shielding for atom   18 (    32.6047 ppm):
                         Standard Origin              Atomic Origin
 NLMO      Total    Paramagnetic  Diamagnetic   Paramagnetic  Diamagnetic
   12       1.2959        0.4503       0.8456         0.4008       0.8952
   13       1.1039        1.0786       0.0252         0.0821       1.0218
   14       2.0996        1.4983       0.6013         0.3186       1.7810
   15      26.3389        0.0520      26.2868         0.4471      25.8917
   16      -0.2106       -0.0768      -0.1338        -1.2094       0.9988
   26      -0.3085       -1.1268       0.8184        -0.8622       0.5537
   29      -0.3316       -1.6537       1.3222        -0.8773       0.5457
 Sum       29.9876        0.2218      29.7658        -1.7002      31.6878

 Contributions to Isotropic shielding for atom   19 (    32.9879 ppm):
                         Standard Origin              Atomic Origin
 NLMO      Total    Paramagnetic  Diamagnetic   Paramagnetic  Diamagnetic
    8       1.3077        0.9409       0.3668         0.3905       0.9173
   10      -0.0994       -0.2855       0.1861        -1.3325       1.2331
   12       1.1644        0.7284       0.4360         0.0372       1.1272
   14      -0.1290       -0.6996       0.5705        -1.3101       1.1810
   16       1.0665        1.3847      -0.3183        -0.1033       1.1698
   17      26.6393       -0.0487      26.6880         0.4351      26.2042
   22      -0.0496       -1.1718       1.1222        -0.8052       0.7557
   24      -0.0368       -0.6168       0.5800        -1.0517       1.0149
   30      -0.1401       -1.6131       1.4730        -1.0430       0.9028
 Sum       29.7230       -1.3814      31.1044        -4.7830      34.5059

 Contributions to Isotropic shielding for atom   20 (    32.6964 ppm):
                         Standard Origin              Atomic Origin
 NLMO      Total    Paramagnetic  Diamagnetic   Paramagnetic  Diamagnetic
    1      -0.1570       -0.2663       0.1092        -1.2585       1.1014
    4      -0.0601       -1.4367       1.3766        -0.9891       0.9289
    5       1.0266        1.4266      -0.4000         0.1467       0.8799
   13       1.2003        0.7840       0.4163         0.2184       0.9819
   15       0.1997        0.1077       0.0920        -0.8024       1.0021
   18      26.4057       -0.0053      26.4110         0.4969      25.9088
   19       2.1428        1.3744       0.7684         0.3862       1.7566
 Sum       30.7579        1.9844      28.7734        -1.8018      32.5596

 Contributions to Isotropic shielding for atom   21 (    32.6547 ppm):
                         Standard Origin              Atomic Origin
 NLMO      Total    Paramagnetic  Diamagnetic   Paramagnetic  Diamagnetic
    5       1.2588        0.5129       0.7459         0.2791       0.9798
    7      -0.0173       -0.7584       0.7411        -1.1192       1.1019
   13       1.3731       -0.1179       1.4911         0.4053       0.9678
   18       1.9301        1.5692       0.3608         0.1159       1.8142
   19      26.4264        0.1688      26.2575         0.3860      26.0404
 Sum       30.9712        1.3747      29.5965         0.0671      30.9041

 Contributions to Isotropic shielding for atom   22 (    33.2073 ppm):
                         Standard Origin              Atomic Origin
 NLMO      Total    Paramagnetic  Diamagnetic   Paramagnetic  Diamagnetic
    1      -0.1240       -0.5420       0.4180        -1.2387       1.1147
    2      -0.0079       -1.1279       1.1200        -0.9577       0.9498
    6       1.1895        0.6870       0.5025         0.3737       0.8158
    9       1.4234        0.1251       1.2983         0.6075       0.8159
   10      -0.1505        0.1564      -0.3070        -1.1735       1.0230
   20      26.5420        0.1482      26.3938         0.4361      26.1060
   21       1.9924        1.7902       0.2022         0.1248       1.8676
 Sum       30.8649        1.2371      29.6278        -1.8278      32.6927

 Contributions to Isotropic shielding for atom   23 (    31.9372 ppm):
                         Standard Origin              Atomic Origin
 NLMO      Total    Paramagnetic  Diamagnetic   Paramagnetic  Diamagnetic
    3      -0.0641       -1.1254       1.0613        -0.9070       0.8429
    6       0.9719        1.1568      -0.1849        -0.0006       0.9725
    7       0.0198       -0.3425       0.3623        -1.0322       1.0520
    9       1.1735        0.5786       0.5949         0.2886       0.8850
   10      -0.1300        0.1989      -0.3289        -1.4705       1.3405
   20       1.9547        1.5364       0.4183         0.1339       1.8208
   21      26.2293       -0.0062      26.2356         0.4538      25.7756
 Sum       30.1552        1.9965      28.1587        -2.5340      32.6892

 Contributions to Isotropic shielding for atom   24 (    35.4130 ppm):
                         Standard Origin              Atomic Origin
 NLMO      Total    Paramagnetic  Diamagnetic   Paramagnetic  Diamagnetic
    9      -0.1766        0.3640      -0.5406        -1.0761       0.8995
   10       1.9589        1.3089       0.6501         1.3416       0.6173
   22      23.0377       -0.2984      23.3361        -0.1433      23.1809
   43       3.9074        1.6080       2.2994         1.9599       1.9475
   44       5.5495        2.4788       3.0707         2.4058       3.1437
 Sum       34.2769        5.4613      28.8156         4.4880      29.7889

 Contributions to Isotropic shielding for atom   25 (    31.9948 ppm):
                         Standard Origin              Atomic Origin
 NLMO      Total    Paramagnetic  Diamagnetic   Paramagnetic  Diamagnetic
    8      -0.1534        0.1713      -0.3247        -1.1376       0.9842
   10       0.0377       -0.3094       0.3470        -1.3184       1.3561
   16       1.6416       -0.0823       1.7239         0.6443       0.9974
   23       0.9951        1.3603      -0.3652        -0.0296       1.0247
   24       0.7891        2.0151      -1.2261        -0.2272       1.0163
   25      26.2813       -0.0600      26.3413         0.4359      25.8454
 Sum       29.5914        3.0951      26.4963        -1.6327      31.2242

 Contributions to Isotropic shielding for atom   26 (    32.7852 ppm):
                         Standard Origin              Atomic Origin
 NLMO      Total    Paramagnetic  Diamagnetic   Paramagnetic  Diamagnetic
   12      -0.1132        0.0222      -0.1354        -1.0703       0.9571
   23       1.4517       -0.4384       1.8902         0.5160       0.9357
   26      26.3295        0.2536      26.0759         0.3818      25.9477
   27       2.1248        0.3425       1.7823         0.3018       1.8230
   28       1.9793        2.0482      -0.0689         0.1309       1.8484
 Sum       31.7722        2.2281      29.5441         0.2602      31.5119

 Contributions to Isotropic shielding for atom   27 (    32.5025 ppm):
                         Standard Origin              Atomic Origin
 NLMO      Total    Paramagnetic  Diamagnetic   Paramagnetic  Diamagnetic
   23       1.5093       -0.7154       2.2246         0.4857       1.0236
   26       2.1094        0.3851       1.7244         0.2720       1.8374
   27      26.3166        0.2953      26.0212         0.3651      25.9514
   28       1.9551        1.8084       0.1467         0.0876       1.8675
 Sum       31.8904        1.7735      30.1169         1.2105      30.6799

 Contributions to Isotropic shielding for atom   28 (    32.5147 ppm):
                         Standard Origin              Atomic Origin
 NLMO      Total    Paramagnetic  Diamagnetic   Paramagnetic  Diamagnetic
   23       1.1551        0.9408       0.2143         0.1169       1.0382
   24      -0.1440        0.5313      -0.6752        -1.1128       0.9689
   26       1.9991        1.6740       0.3252         0.1373       1.8618
   27       2.0589        1.4593       0.5996         0.1921       1.8668
   28      26.2882       -0.0313      26.3195         0.3989      25.8893
   31      -0.0926       -1.0273       0.9347        -0.9802       0.8876
 Sum       31.2648        3.5468      27.7181        -1.2477      32.5126

 Contributions to Isotropic shielding for atom   29 (    32.5527 ppm):
                         Standard Origin              Atomic Origin
 NLMO      Total    Paramagnetic  Diamagnetic   Paramagnetic  Diamagnetic
   12      -0.0857        0.2053      -0.2910        -1.1071       1.0215
   23      -0.1401        0.3383      -0.4784        -1.0118       0.8717
   24       1.5510       -1.0970       2.6479         0.6320       0.9190
   29      26.3552        0.2708      26.0844         0.4027      25.9525
   30       1.9960        0.8768       1.1192         0.1792       1.8168
   31       1.8854        2.0552      -0.1698         0.0406       1.8449
 Sum       31.5618        2.6495      28.9123        -0.8645      32.4263

 Contributions to Isotropic shielding for atom   30 (    32.6065 ppm):
                         Standard Origin              Atomic Origin
 NLMO      Total    Paramagnetic  Diamagnetic   Paramagnetic  Diamagnetic
   24       1.5873       -0.7967       2.3839         0.5700       1.0173
   29       2.0305        0.8516       1.1789         0.1923       1.8382
   30      26.3918        0.2616      26.1302         0.4227      25.9690
   31       1.9025        2.2551      -0.3527         0.0541       1.8483
 Sum       31.9120        2.5717      29.3403         1.2391      30.6729

 Contributions to Isotropic shielding for atom   31 (    32.4110 ppm):
                         Standard Origin              Atomic Origin
 NLMO      Total    Paramagnetic  Diamagnetic   Paramagnetic  Diamagnetic
   23      -0.1785        0.7506      -0.9290        -1.1306       0.9521
   24       1.2723        0.2673       1.0050         0.2405       1.0318
   29       1.9527        1.7277       0.2250         0.0940       1.8587
   30       1.9225        1.9440      -0.0215         0.0792       1.8433
   31      26.3491        0.0212      26.3279         0.4451      25.9040
 Sum       31.3181        4.7108      26.6073        -0.2717      31.5899
 
 1\1\GINC-COMPUTE-10-7\SP\RHF\STO-3G\C10H20O1\YTSAI.IQUIR\24-May-2020\0
 \\# rhf/STO-3G nmr pop=nbo\\comment\\0,1\C,0,2.945703251,0.566456105,-
 1.731941809\C,0,1.592898291,-0.134322017,-1.596905182\C,0,0.264724065,
 -1.397756538,0.152208465\C,0,0.131277653,1.159090286,0.04763183\C,0,-0
 .248392438,-0.111235655,0.842273709\C,0,0.447778402,0.877869442,-1.419
 585031\C,0,1.642356862,-1.17292424,-0.466006666\O,0,0.340613311,-2.458
 748071,1.102151448\C,0,-1.760149331,-0.218170211,1.204725281\C,0,-2.69
 8574441,-0.145376768,-0.003305004\C,0,-2.166443615,0.843268971,2.23501
 3296\H,0,3.18457525,1.150375964,-0.836802282\H,0,3.747017873,-0.164186
 894,-1.885340273\H,0,2.946697372,1.247273829,-2.589732112\H,0,1.411063
 068,-0.664794019,-2.541257493\H,0,-0.423451896,-1.7291946,-0.631616848
 \H,0,1.021877049,1.603706631,0.511425551\H,0,-0.646244443,1.92634786,0
 .111706658\H,0,0.274913625,-0.038222184,1.807805141\H,0,0.678088003,1.
 816586359,-1.937227342\H,0,-0.453691012,0.480831238,-1.903341001\H,0,2
 .341246134,-0.861700738,0.322452775\H,0,2.045762855,-2.119678973,-0.84
 7153203\H,0,0.984436966,-2.204235203,1.784960598\H,0,-1.921251049,-1.1
 93083461,1.683939986\H,0,-2.64091107,0.824290903,-0.507283688\H,0,-2.4
 75434794,-0.924919779,-0.73667043\H,0,-3.737957558,-0.288108482,0.3131
 10244\H,0,-2.102299725,1.857147543,1.828850371\H,0,-1.526963704,0.7902
 71551,3.122354427\H,0,-3.199264956,0.683141151,2.563558584\\Version=EM
 64L-G09RevC.01\State=1-A\HF=-459.6127769\RMSD=6.512e-09\Dipole=0.27857
 72,0.481846,0.0016225\Quadrupole=1.3399751,-3.1135821,1.7736069,-0.865
 9287,1.2448788,0.6477345\PG=C01 [X(C10H20O1)]\\@


 WE SHOULD BE CAREFUL TO GET OUT OF AN EXPERIENCE ONLY THE WISDOM
 THAT IS IN IT -- AND STOP THERE;
 LEST WE BE LIKE THE CAT THAT SITS DOWN ON A HOT STOVE-LID.
 SHE WILL NEVER SIT DOWN ON A HOT STOVE LID AGAIN;
 BUT ALSO SHE WILL NEVER SIT DOWN ON A COLD ONE ANY MORE.

                                                     -- MARK TWAIN
 Job cpu time:  0 days  0 hours  0 minutes 39.1 seconds.
 File lengths (MBytes):  RWF=      5 Int=      0 D2E=      0 Chk=      1 Scr=      1
 Normal termination of Gaussian 09 at Sun May 24 02:04:59 2020.
