 Entering Gaussian System, Link 0=g09
 Input=/home/ytsai.iquir/menthol/01_menthol_M0028_MMFF_NMR_rhf_STO-3G_nbo.gjc
 Output=/home/ytsai.iquir/menthol/01_menthol_M0028_MMFF_NMR_rhf_STO-3G_nbo.log
 Initial command:
 /share/apps/Gaussian09/EM64T.SSE4.2-enabled/g09/l1.exe /tmp/Gau-12036.inp -scrdir=/tmp/
 Entering Link 1 = /share/apps/Gaussian09/EM64T.SSE4.2-enabled/g09/l1.exe PID=     12037.
  
 Copyright (c) 1988,1990,1992,1993,1995,1998,2003,2009,2011,
            Gaussian, Inc.  All Rights Reserved.
  
 This is part of the Gaussian(R) 09 program.  It is based on
 the Gaussian(R) 03 system (copyright 2003, Gaussian, Inc.),
 the Gaussian(R) 98 system (copyright 1998, Gaussian, Inc.),
 the Gaussian(R) 94 system (copyright 1995, Gaussian, Inc.),
 the Gaussian 92(TM) system (copyright 1992, Gaussian, Inc.),
 the Gaussian 90(TM) system (copyright 1990, Gaussian, Inc.),
 the Gaussian 88(TM) system (copyright 1988, Gaussian, Inc.),
 the Gaussian 86(TM) system (copyright 1986, Carnegie Mellon
 University), and the Gaussian 82(TM) system (copyright 1983,
 Carnegie Mellon University). Gaussian is a federally registered
 trademark of Gaussian, Inc.
  
 This software contains proprietary and confidential information,
 including trade secrets, belonging to Gaussian, Inc.
  
 This software is provided under written license and may be
 used, copied, transmitted, or stored only in accord with that
 written license.
  
 The following legend is applicable only to US Government
 contracts under FAR:
  
                    RESTRICTED RIGHTS LEGEND
  
 Use, reproduction and disclosure by the US Government is
 subject to restrictions as set forth in subparagraphs (a)
 and (c) of the Commercial Computer Software - Restricted
 Rights clause in FAR 52.227-19.
  
 Gaussian, Inc.
 340 Quinnipiac St., Bldg. 40, Wallingford CT 06492
  
  
 ---------------------------------------------------------------
 Warning -- This program may not be used in any manner that
 competes with the business of Gaussian, Inc. or will provide
 assistance to any competitor of Gaussian, Inc.  The licensee
 of this program is prohibited from giving any competitor of
 Gaussian, Inc. access to this program.  By using this program,
 the user acknowledges that Gaussian, Inc. is engaged in the
 business of creating and licensing software in the field of
 computational chemistry and represents and warrants to the
 licensee that it is not a competitor of Gaussian, Inc. and that
 it will not use this program in any manner prohibited above.
 ---------------------------------------------------------------
  

 Cite this work as:
 Gaussian 09, Revision C.01,
 M. J. Frisch, G. W. Trucks, H. B. Schlegel, G. E. Scuseria, 
 M. A. Robb, J. R. Cheeseman, G. Scalmani, V. Barone, B. Mennucci, 
 G. A. Petersson, H. Nakatsuji, M. Caricato, X. Li, H. P. Hratchian, 
 A. F. Izmaylov, J. Bloino, G. Zheng, J. L. Sonnenberg, M. Hada, 
 M. Ehara, K. Toyota, R. Fukuda, J. Hasegawa, M. Ishida, T. Nakajima, 
 Y. Honda, O. Kitao, H. Nakai, T. Vreven, J. A. Montgomery, Jr., 
 J. E. Peralta, F. Ogliaro, M. Bearpark, J. J. Heyd, E. Brothers, 
 K. N. Kudin, V. N. Staroverov, T. Keith, R. Kobayashi, J. Normand, 
 K. Raghavachari, A. Rendell, J. C. Burant, S. S. Iyengar, J. Tomasi, 
 M. Cossi, N. Rega, J. M. Millam, M. Klene, J. E. Knox, J. B. Cross, 
 V. Bakken, C. Adamo, J. Jaramillo, R. Gomperts, R. E. Stratmann, 
 O. Yazyev, A. J. Austin, R. Cammi, C. Pomelli, J. W. Ochterski, 
 R. L. Martin, K. Morokuma, V. G. Zakrzewski, G. A. Voth, 
 P. Salvador, J. J. Dannenberg, S. Dapprich, A. D. Daniels, 
 O. Farkas, J. B. Foresman, J. V. Ortiz, J. Cioslowski, 
 and D. J. Fox, Gaussian, Inc., Wallingford CT, 2010.
 
 ******************************************
 Gaussian 09:  EM64L-G09RevC.01 23-Sep-2011
                24-May-2020 
 ******************************************
 %nprocshared=4
 Will use up to    4 processors via shared memory.
 ------------------------
 # rhf/STO-3G nmr pop=nbo
 ------------------------
 1/38=1/1;
 2/12=2,17=6,18=5,40=1/2;
 3/6=3,11=1,16=1,25=1,30=1,116=1/1,2,8,3;
 4//1;
 5/5=2,38=5/2;
 8/6=1,10=90,11=11/1;
 10/13=100,45=16/2;
 6/7=2,8=2,9=2,10=2,28=1,64=1/1,7;
 99/9=1/99;
 -------
 comment
 -------
 Charge =  0 Multiplicity = 1
 Symbolic Z-Matrix:
 6                     3.13082   0.56453  -0.58844 
 6                     1.74367   0.37288  -1.20995 
 6                     0.55576  -1.20668   0.45839 
 6                     0.22944   1.27685   0.63805 
 6                    -0.4605   -0.09482   0.81121 
 6                     0.77712   1.48291  -0.77387 
 6                     1.16563  -1.02837  -0.93692 
 8                     1.6099   -1.21959   1.42273 
 6                    -1.80137  -0.21695   0.01776 
 6                    -2.7858    0.90838   0.36497 
 6                    -2.49913  -1.56031   0.27405 
 1                     3.56596   1.51494  -0.91676 
 1                     3.10583   0.578     0.50399 
 1                     3.81086  -0.23413  -0.90294 
 1                     1.88358   0.46174  -2.29582 
 1                     0.09593  -2.19672   0.51792 
 1                     1.05217   1.35947   1.3593 
 1                    -0.45094   2.09571   0.89179 
 1                    -0.70197  -0.18471   1.87996 
 1                     1.27344   2.45916  -0.83281 
 1                    -0.05838   1.52637  -1.48287 
 1                     1.95094  -1.77844  -1.09341 
 1                     0.38959  -1.23033  -1.68568 
 1                     1.2074   -1.36871   2.29518 
 1                    -1.60218  -0.15479  -1.05834 
 1                    -2.95149   0.97077   1.44568 
 1                    -2.42593   1.87925   0.01238 
 1                    -3.75625   0.74228  -0.11585 
 1                    -2.63629  -1.73754   1.346 
 1                    -1.9314   -2.39566  -0.14511 
 1                    -3.4864   -1.58551  -0.20059 
 
                          Input orientation:                          
 ---------------------------------------------------------------------
 Center     Atomic      Atomic             Coordinates (Angstroms)
 Number     Number       Type             X           Y           Z
 ---------------------------------------------------------------------
      1          6           0        3.130816    0.564529   -0.588436
      2          6           0        1.743667    0.372883   -1.209953
      3          6           0        0.555763   -1.206681    0.458391
      4          6           0        0.229436    1.276852    0.638049
      5          6           0       -0.460498   -0.094815    0.811212
      6          6           0        0.777115    1.482911   -0.773872
      7          6           0        1.165629   -1.028370   -0.936919
      8          8           0        1.609900   -1.219587    1.422732
      9          6           0       -1.801367   -0.216952    0.017756
     10          6           0       -2.785799    0.908379    0.364974
     11          6           0       -2.499134   -1.560315    0.274050
     12          1           0        3.565964    1.514943   -0.916761
     13          1           0        3.105835    0.577998    0.503988
     14          1           0        3.810856   -0.234129   -0.902942
     15          1           0        1.883578    0.461742   -2.295824
     16          1           0        0.095935   -2.196720    0.517922
     17          1           0        1.052168    1.359468    1.359305
     18          1           0       -0.450937    2.095712    0.891787
     19          1           0       -0.701974   -0.184710    1.879961
     20          1           0        1.273438    2.459157   -0.832813
     21          1           0       -0.058379    1.526367   -1.482868
     22          1           0        1.950943   -1.778438   -1.093412
     23          1           0        0.389590   -1.230328   -1.685683
     24          1           0        1.207400   -1.368706    2.295182
     25          1           0       -1.602180   -0.154788   -1.058335
     26          1           0       -2.951491    0.970773    1.445678
     27          1           0       -2.425933    1.879250    0.012385
     28          1           0       -3.756255    0.742282   -0.115848
     29          1           0       -2.636289   -1.737539    1.345996
     30          1           0       -1.931396   -2.395656   -0.145109
     31          1           0       -3.486399   -1.585514   -0.200593
 ---------------------------------------------------------------------
                    Distance matrix (angstroms):
                    1          2          3          4          5
     1  C    0.000000
     2  C    1.532055   0.000000
     3  C    3.296048   2.586409   0.000000
     4  C    3.229501   2.554441   2.511315   0.000000
     5  C    3.910407   3.026912   1.547099   1.545142   0.000000
     6  C    2.533322   1.535106   2.966711   1.528376   2.556051
     7  C    2.553572   1.540191   1.533174   2.944662   2.563548
     8  O    3.088859   3.079754   1.428749   2.958651   2.434259
     9  C    5.030369   3.797689   2.594183   2.596223   1.562824
    10  C    6.002796   4.825269   3.955786   3.049915   2.571488
    11  C    6.079078   4.892943   3.080817   3.953113   2.567541
    12  H    1.095645   2.170490   4.284810   3.688705   4.667934
    13  H    1.092792   2.198901   3.112881   2.963113   3.642224
    14  H    1.095091   2.176233   3.659880   4.181422   4.604585
    15  H    2.116918   1.098447   3.483163   3.465284   3.931681
    16  H    4.249592   3.507626   1.093235   3.478212   2.194001
    17  H    2.957431   2.837711   2.764631   1.097235   2.168757
    18  H    4.167078   3.493098   3.479522   1.094450   2.192029
    19  H    4.620024   3.979905   2.155734   2.132143   1.099371
    20  H    2.664430   2.171609   3.952295   2.156669   3.497445
    21  H    3.449073   2.156937   3.408109   2.154851   2.837734
    22  H    2.671441   2.164424   2.163684   3.911054   3.503887
    23  H    3.455399   2.151774   2.150634   3.422182   2.871676
    24  H    3.968902   3.950530   1.955680   3.271312   2.570379
    25  H    4.810351   3.390593   2.839657   2.877869   2.191401
    26  H    6.426283   5.427187   4.244628   3.296095   2.782637
    27  H    5.741684   4.598784   4.314209   2.793801   2.897929
    28  H    6.905555   5.619846   4.766729   4.091437   3.524512
    29  H    6.503925   5.492792   3.355420   4.219018   2.778237
    30  H    5.880920   4.722795   2.822026   4.332417   2.893433
    31  H    6.968547   5.675185   4.113010   4.764860   3.521649
                    6          7          8          9         10
     6  C    0.000000
     7  C    2.546382   0.000000
     8  O    3.580795   2.408712   0.000000
     9  C    3.188225   3.220695   3.823085   0.000000
    10  C    3.784365   4.589086   4.996925   1.534939   0.000000
    11  C    4.592730   3.896140   4.280155   1.535314   2.486945
    12  H    2.792691   3.497207   4.095982   5.716732   6.508123
    13  H    2.806194   2.901901   2.512613   4.994897   5.902527
    14  H    3.488333   2.762101   3.350238   5.687269   6.813868
    15  H    2.140883   2.140679   4.090162   4.403646   5.392811
    16  H    3.958841   2.150780   2.016323   2.787365   4.239036
    17  H    2.154376   3.314708   2.639433   3.525269   3.990259
    18  H    2.158253   3.964510   3.939563   2.817091   2.671866
    19  H    3.465760   3.483464   2.573867   2.162756   2.798635
    20  H    1.096753   3.490746   4.328261   4.164067   4.507440
    21  H    1.096638   2.884950   4.331966   2.886008   3.351903
    22  H    3.480858   1.097183   2.599924   4.213403   5.637606
    23  H    2.888467   1.097119   3.339388   2.954476   4.343082
    24  H    4.211408   3.250239   0.972323   3.945363   4.985625
    25  H    2.902417   2.904937   4.196063   1.096134   2.134734
    26  H    4.369346   5.159847   5.060088   2.184591   1.095111
    27  H    3.321867   4.717495   5.280134   2.187275   1.093806
    28  H    4.640363   5.294744   5.917075   2.181643   1.095702
    29  H    5.149413   4.491013   4.278350   2.184834   2.825887
    30  H    4.772279   3.476780   4.047473   2.188649   3.450628
    31  H    5.284073   4.742779   5.361096   2.181736   2.651454
                   11         12         13         14         15
    11  C    0.000000
    12  H    6.903670   0.000000
    13  H    6.003410   1.762984   0.000000
    14  H    6.554393   1.766187   1.770892   0.000000
    15  H    5.468193   2.416913   3.057184   2.477652   0.000000
    16  H    2.683071   5.279760   4.093746   4.435230   4.263831
    17  H    4.723839   3.394675   2.357924   3.907386   3.854493
    18  H    4.235946   4.443381   3.886447   5.178039   4.275591
    19  H    2.775071   5.378268   4.120004   5.302134   4.953802
    20  H    5.622597   2.480778   2.946773   3.700972   2.549968
    21  H    4.309484   3.668306   3.854769   4.290296   2.359135
    22  H    4.660549   3.672310   3.072174   2.424963   2.543372
    23  H    3.506305   4.268150   3.929719   3.648309   2.338241
    24  H    4.226119   4.918824   3.256085   4.277060   4.988496
    25  H    2.134311   5.433025   5.014303   5.415848   3.749933
    26  H    2.825552   6.953737   6.142657   7.259280   6.134805
    27  H    3.450280   6.074443   5.703980   6.648439   5.090092
    28  H    2.652230   7.406305   6.891985   7.670337   6.052992
    29  H    1.095120   7.359799   6.248413   6.991683   6.207163
    30  H    1.093534   6.790375   5.885375   6.182230   5.229179
    31  H    1.095725   7.737025   6.973863   7.454494   6.117017
                   16         17         18         19         20
    16  H    0.000000
    17  H    3.777404   0.000000
    18  H    4.343249   1.737802   0.000000
    19  H    2.557341   2.394282   2.497965   0.000000
    20  H    4.988807   2.462449   2.465727   4.272169   0.000000
    21  H    4.229463   3.055997   2.473306   3.827613   1.751116
    22  H    2.492472   4.082899   4.971829   4.291723   4.299318
    23  H    2.424051   4.051914   4.290965   3.872809   3.888557
    24  H    2.253800   2.888407   4.089228   2.284724   4.943809
    25  H    3.088312   3.896604   3.192661   3.073247   3.892653
    26  H    4.492276   4.023410   2.797329   2.565944   5.025617
    27  H    4.819639   3.765841   2.172743   3.274111   3.838750
    28  H    4.886590   5.067340   3.711095   3.764465   5.362790
    29  H    2.891642   4.816258   4.435750   2.537315   6.135587
    30  H    2.142255   5.026516   4.841414   3.240473   5.857739
    31  H    3.704451   5.630701   4.894767   3.747530   6.278146
                   21         22         23         24         25
    21  H    0.000000
    22  H    3.887260   0.000000
    23  H    2.800211   1.757565   0.000000
    24  H    4.925171   3.493323   4.066356   0.000000
    25  H    2.321602   3.906681   2.348936   4.540200   0.000000
    26  H    4.153933   6.167576   5.080658   4.846771   3.059021
    27  H    2.822343   5.810208   4.525492   5.381588   2.441786
    28  H    4.019679   6.315202   4.852175   5.908232   2.516556
    29  H    5.030027   5.195679   4.313268   3.976296   3.058641
    30  H    4.547533   4.043858   3.019657   4.106299   2.442100
    31  H    4.804098   5.513532   4.165926   5.320494   2.516541
                   26         27         28         29         30
    26  H    0.000000
    27  H    1.776477   0.000000
    28  H    1.771502   1.754678   0.000000
    29  H    2.728414   3.860561   3.088822   0.000000
    30  H    3.860575   4.306296   3.630099   1.775778   0.000000
    31  H    3.087222   3.629674   2.344917   1.771366   1.754265
                   31
    31  H    0.000000
 Stoichiometry    C10H20O
 Framework group  C1[X(C10H20O)]
 Deg. of freedom    87
 Full point group                 C1      NOp   1
 Largest Abelian subgroup         C1      NOp   1
 Largest concise Abelian subgroup C1      NOp   1
                         Standard orientation:                         
 ---------------------------------------------------------------------
 Center     Atomic      Atomic             Coordinates (Angstroms)
 Number     Number       Type             X           Y           Z
 ---------------------------------------------------------------------
      1          6           0       -3.114509   -0.343716   -0.006634
      2          6           0       -1.842575   -0.566113   -0.831204
      3          6           0       -0.233235    1.255899    0.051864
      4          6           0       -0.132060   -1.068011    0.998387
      5          6           0        0.711608    0.169073    0.617189
      6          6           0       -0.931963   -1.617838   -0.182197
      7          6           0       -1.088442    0.746646   -1.114285
      8          8           0       -1.099394    1.726662    1.086019
      9          6           0        1.901679   -0.165037   -0.339118
     10          6           0        2.813015   -1.261446    0.229557
     11          6           0        2.764457    1.070152   -0.634265
     12          1           0       -3.692815   -1.272118    0.057162
     13          1           0       -2.903776   -0.020477    1.015766
     14          1           0       -3.754737    0.410443   -0.476290
     15          1           0       -2.175094   -0.966026   -1.798720
     16          1           0        0.327077    2.134198   -0.279505
     17          1           0       -0.822781   -0.797331    1.806819
     18          1           0        0.496029   -1.860071    1.417872
     19          1           0        1.140826    0.549331    1.555162
     20          1           0       -1.526554   -2.477510    0.149906
     21          1           0       -0.239294   -2.004938   -0.939151
     22          1           0       -1.809584    1.520196   -1.406490
     23          1           0       -0.436217    0.586442   -1.981815
     24          1           0       -0.540133    2.077205    1.799994
     25          1           0        1.515429   -0.527926   -1.298614
     26          1           0        3.154718   -1.008963    1.238893
     27          1           0        2.302264   -2.227932    0.267652
     28          1           0        3.698182   -1.401290   -0.400907
     29          1           0        3.100760    1.549074    0.291381
     30          1           0        2.219998    1.809276   -1.228468
     31          1           0        3.653005    0.797474   -1.214561
 ---------------------------------------------------------------------
 Rotational constants (GHZ):      1.7093680      0.7869610      0.6753929
 Standard basis: STO-3G (5D, 7F)
 There are    75 symmetry adapted basis functions of A   symmetry.
 Integral buffers will be    131072 words long.
 Raffenetti 1 integral format.
 Two-electron integral symmetry is turned on.
    75 basis functions,   225 primitive gaussians,    75 cartesian basis functions
    44 alpha electrons       44 beta electrons
       nuclear repulsion energy       703.9228095402 Hartrees.
 NAtoms=   31 NActive=   31 NUniq=   31 SFac= 1.00D+00 NAtFMM=   60 NAOKFM=F Big=F
 One-electron integrals computed using PRISM.
 NBasis=    75 RedAO= T  NBF=    75
 NBsUse=    75 1.00D-06 NBFU=    75
 Harris functional with IExCor=  205 diagonalized for initial guess.
 ExpMin= 1.69D-01 ExpMax= 1.31D+02 ExpMxC= 1.31D+02 IAcc=1 IRadAn=         1 AccDes= 0.00D+00
 HarFok:  IExCor=  205 AccDes= 0.00D+00 IRadAn=         1 IDoV= 1
 ScaDFX=  1.000000  1.000000  1.000000  1.000000
 FoFCou: FMM=F IPFlag=           0 FMFlag=      100000 FMFlg1=           0
         NFxFlg=           0 DoJE=T BraDBF=F KetDBF=T FulRan=T
         Omega=  0.000000  0.000000  1.000000  0.000000  0.000000 ICntrl=     500 IOpCl=  0
         NMat0=    1 NMatS0=    1 NMatT0=    0 NMatD0=    1 NMtDS0=    0 NMtDT0=    0
         I1Cent=           4 NGrid=           0.
 Petite list used in FoFCou.
 Initial guess orbital symmetries:
       Occupied  (A) (A) (A) (A) (A) (A) (A) (A) (A) (A) (A) (A)
                 (A) (A) (A) (A) (A) (A) (A) (A) (A) (A) (A) (A)
                 (A) (A) (A) (A) (A) (A) (A) (A) (A) (A) (A) (A)
                 (A) (A) (A) (A) (A) (A) (A) (A)
       Virtual   (A) (A) (A) (A) (A) (A) (A) (A) (A) (A) (A) (A)
                 (A) (A) (A) (A) (A) (A) (A) (A) (A) (A) (A) (A)
                 (A) (A) (A) (A) (A) (A) (A)
 The electronic state of the initial guess is 1-A.
 Requested convergence on RMS density matrix=1.00D-08 within 128 cycles.
 Requested convergence on MAX density matrix=1.00D-06.
 Requested convergence on             energy=1.00D-06.
 No special actions if energy rises.
 Keep R1 ints in memory in canonical form, NReq=4898789.
 SCF Done:  E(RHF) =  -459.616248726     A.U. after   10 cycles
             Convg  =    0.7507D-08             -V/T =  2.0090
 Range of M.O.s used for correlation:     1    75
 NBasis=    75 NAE=    44 NBE=    44 NFC=     0 NFV=     0
 NROrb=     75 NOA=    44 NOB=    44 NVA=    31 NVB=    31
          Differentiating once with respect to magnetic field using GIAOs.
          Electric field/nuclear overlap derivatives assumed to be zero.
          Keep R3 ints in memory in canonical form, NReq=4863575.
 FoFCou: FMM=F IPFlag=           0 FMFlag=           0 FMFlg1=           0
         NFxFlg=           0 DoJE=F BraDBF=F KetDBF=T FulRan=T
         Omega=  0.000000  0.000000  1.000000  0.000000  0.000000 ICntrl=    6100 IOpCl=  0
         NMat0=    1 NMatS0=    1 NMatT0=    0 NMatD0=    1 NMtDS0=    0 NMtDT0=    0
         I1Cent=           7 NGrid=          31.
 Symmetry not used in FoFCou.
          There are     3 degrees of freedom in the 1st order CPHF.  IDoFFX=0.
      3 vectors produced by pass  0 Test12= 4.55D-14 3.33D-08 XBig12= 6.56D+00 4.85D-01.
 AX will form     3 AO Fock derivatives at one time.
      3 vectors produced by pass  1 Test12= 4.55D-14 3.33D-08 XBig12= 1.06D-02 1.37D-02.
      3 vectors produced by pass  2 Test12= 4.55D-14 3.33D-08 XBig12= 8.39D-05 2.39D-03.
      3 vectors produced by pass  3 Test12= 4.55D-14 3.33D-08 XBig12= 1.62D-06 4.55D-04.
      3 vectors produced by pass  4 Test12= 4.55D-14 3.33D-08 XBig12= 1.79D-08 2.56D-05.
      3 vectors produced by pass  5 Test12= 4.55D-14 3.33D-08 XBig12= 3.32D-10 2.96D-06.
      3 vectors produced by pass  6 Test12= 4.55D-14 3.33D-08 XBig12= 4.20D-12 3.33D-07.
 Inverted reduced A of dimension    21 with in-core refinement.
 Calculating GIAO nuclear magnetic shielding tensors.
 SCF GIAO Magnetic shielding tensor (ppm):
      1  C    Isotropic =   221.4852   Anisotropy =    26.6933
   XX=   234.4061   YX=    -1.3759   ZX=    -9.1881
   XY=    -3.0116   YY=   217.5301   ZY=    -2.3329
   XZ=   -13.5031   YZ=    -2.4529   ZZ=   212.5195
   Eigenvalues:   206.8221   218.3528   239.2807
      2  C    Isotropic =   216.2318   Anisotropy =     5.7132
   XX=   219.6929   YX=    -0.0294   ZX=    -1.9587
   XY=     0.9393   YY=   217.0993   ZY=    -1.9879
   XZ=    -0.2815   YZ=    -1.5993   ZZ=   211.9030
   Eigenvalues:   211.2397   217.4150   220.0406
      3  C    Isotropic =   189.4111   Anisotropy =    40.7896
   XX=   193.6044   YX=    -8.8714   ZX=   -16.6790
   XY=   -10.9362   YY=   175.6289   ZY=     9.8671
   XZ=   -14.4738   YZ=     8.9052   ZZ=   199.0000
   Eigenvalues:   170.9203   180.7088   216.6041
      4  C    Isotropic =   220.9030   Anisotropy =    15.2002
   XX=   223.4764   YX=     6.8146   ZX=     2.7032
   XY=     8.4549   YY=   223.1283   ZY=    -1.8660
   XZ=     1.5554   YZ=     0.9334   ZZ=   216.1042
   Eigenvalues:   214.0121   217.6603   231.0364
      5  C    Isotropic =   208.1044   Anisotropy =    16.7253
   XX=   214.0087   YX=    -4.6992   ZX=    -4.9856
   XY=    -8.3676   YY=   204.8364   ZY=     5.6726
   XZ=    -2.3072   YZ=     2.0586   ZZ=   205.4680
   Eigenvalues:   200.5482   204.5103   219.2546
      6  C    Isotropic =   219.0732   Anisotropy =    13.8822
   XX=   222.7218   YX=    -3.3487   ZX=     5.5750
   XY=    -3.2270   YY=   220.8182   ZY=    -1.3173
   XZ=     6.7426   YZ=    -4.7249   ZZ=   213.6797
   Eigenvalues:   210.4020   218.4897   228.3281
      7  C    Isotropic =   217.8686   Anisotropy =    12.9851
   XX=   219.6170   YX=     6.7200   ZX=     2.9369
   XY=     5.3418   YY=   221.2178   ZY=    -2.4414
   XZ=     3.3156   YZ=    -1.5704   ZZ=   212.7708
   Eigenvalues:   209.7858   217.2947   226.5253
      8  O    Isotropic =   353.4992   Anisotropy =    95.6674
   XX=   353.8141   YX=     9.4288   ZX=    59.7903
   XY=    10.5431   YY=   334.8150   ZY=    19.7449
   XZ=    31.9051   YZ=    28.8803   ZZ=   371.8686
   Eigenvalues:   312.3690   330.8512   417.2775
      9  C    Isotropic =   215.1743   Anisotropy =    14.4068
   XX=   221.6921   YX=    -3.0849   ZX=    -5.6112
   XY=    -2.8206   YY=   215.0321   ZY=    -2.9632
   XZ=    -7.7403   YZ=    -3.2735   ZZ=   208.7988
   Eigenvalues:   204.4225   216.3217   224.7788
     10  C    Isotropic =   221.4924   Anisotropy =    25.3769
   XX=   224.0077   YX=   -12.4200   ZX=     2.5367
   XY=   -10.6030   YY=   224.7470   ZY=    -6.8234
   XZ=     1.4170   YZ=   -10.0201   ZZ=   215.7224
   Eigenvalues:   208.8153   217.2515   238.4103
     11  C    Isotropic =   221.5320   Anisotropy =    25.8549
   XX=   222.7974   YX=    11.1272   ZX=    -5.9824
   XY=     9.3850   YY=   230.0403   ZY=    -5.0329
   XZ=    -6.2697   YZ=    -1.6359   ZZ=   211.7582
   Eigenvalues:   208.9428   216.8845   238.7686
     12  H    Isotropic =    32.5860   Anisotropy =    14.8010
   XX=    37.1881   YX=     6.4161   ZX=    -1.7912
   XY=     6.3768   YY=    33.9334   ZY=    -0.8263
   XZ=    -1.8885   YZ=    -1.4469   ZZ=    26.6366
   Eigenvalues:    26.3242    28.9805    42.4533
     13  H    Isotropic =    31.9133   Anisotropy =     8.0632
   XX=    33.0289   YX=     0.5846   ZX=    -1.8269
   XY=     0.6980   YY=    27.1122   ZY=     3.3914
   XZ=    -1.8215   YZ=     3.2112   ZZ=    35.5987
   Eigenvalues:    25.7753    32.6758    37.2887
     14  H    Isotropic =    32.4410   Anisotropy =    13.9595
   XX=    38.1690   YX=    -5.2867   ZX=     2.2614
   XY=    -5.2068   YY=    31.5211   ZY=    -2.8445
   XZ=     2.0092   YZ=    -2.3002   ZZ=    27.6329
   Eigenvalues:    26.3264    29.2493    41.7473
     15  H    Isotropic =    32.4013   Anisotropy =    14.9316
   XX=    30.3953   YX=     2.1660   ZX=     4.5097
   XY=     2.2896   YY=    28.7385   ZY=     4.9133
   XZ=     4.7311   YZ=     4.8573   ZZ=    38.0701
   Eigenvalues:    26.6198    28.2284    42.3557
     16  H    Isotropic =    31.8751   Anisotropy =    10.1955
   XX=    32.7695   YX=     3.6973   ZX=    -2.5501
   XY=     2.5118   YY=    35.7592   ZY=    -1.8662
   XZ=    -2.2015   YZ=    -3.0088   ZZ=    27.0967
   Eigenvalues:    26.0407    30.9125    38.6722
     17  H    Isotropic =    32.2516   Anisotropy =    11.6762
   XX=    31.8919   YX=    -0.0265   ZX=    -5.1508
   XY=     0.2233   YY=    28.0110   ZY=    -0.0136
   XZ=    -5.0199   YZ=    -0.4960   ZZ=    36.8519
   Eigenvalues:    28.0013    28.7178    40.0358
     18  H    Isotropic =    32.5271   Anisotropy =    12.8410
   XX=    33.1260   YX=    -3.3832   ZX=     2.9086
   XY=    -3.3192   YY=    34.4245   ZY=    -6.3521
   XZ=     2.3170   YZ=    -6.0873   ZZ=    30.0309
   Eigenvalues:    25.6251    30.8685    41.0878
     19  H    Isotropic =    33.1754   Anisotropy =    10.8964
   XX=    32.7184   YX=     1.0348   ZX=     2.9618
   XY=     1.7365   YY=    29.8267   ZY=     4.2202
   XZ=     3.2775   YZ=     4.2063   ZZ=    36.9810
   Eigenvalues:    27.8761    31.2104    40.4396
     20  H    Isotropic =    32.5494   Anisotropy =    14.7664
   XX=    31.8251   YX=     5.3281   ZX=     0.0756
   XY=     5.3507   YY=    39.2186   ZY=    -2.4573
   XZ=    -0.1647   YZ=    -2.9890   ZZ=    26.6044
   Eigenvalues:    25.7785    29.4760    42.3936
     21  H    Isotropic =    32.5811   Anisotropy =    11.1367
   XX=    33.4466   YX=    -2.9236   ZX=    -2.9698
   XY=    -2.5961   YY=    32.6376   ZY=     5.4572
   XZ=    -2.5649   YZ=     5.5643   ZZ=    31.6589
   Eigenvalues:    26.6100    31.1276    40.0055
     22  H    Isotropic =    32.1047   Anisotropy =    14.1385
   XX=    32.5244   YX=    -4.4055   ZX=     4.2269
   XY=    -4.5788   YY=    34.3630   ZY=    -5.0322
   XZ=     4.3427   YZ=    -4.7771   ZZ=    29.4267
   Eigenvalues:    25.9135    28.8702    41.5304
     23  H    Isotropic =    32.5009   Anisotropy =    11.3922
   XX=    32.3337   YX=     0.6341   ZX=    -4.0240
   XY=     0.8544   YY=    26.8951   ZY=    -1.0116
   XZ=    -3.1815   YZ=    -1.0999   ZZ=    38.2739
   Eigenvalues:    26.7597    30.6473    40.0957
     24  H    Isotropic =    35.1665   Anisotropy =    18.5603
   XX=    33.0414   YX=     1.5773   ZX=     3.7592
   XY=     0.1578   YY=    32.0637   ZY=     9.6822
   XZ=     2.6716   YZ=     9.8546   ZZ=    40.3945
   Eigenvalues:    25.4552    32.5043    47.5401
     25  H    Isotropic =    32.6881   Anisotropy =     8.2048
   XX=    33.4234   YX=     0.7943   ZX=     1.6239
   XY=     1.0610   YY=    28.5420   ZY=     3.2602
   XZ=     1.8477   YZ=     3.3869   ZZ=    36.0988
   Eigenvalues:    27.2769    32.6293    38.1579
     26  H    Isotropic =    32.7045   Anisotropy =    11.8469
   XX=    33.0009   YX=    -1.7202   ZX=     5.3741
   XY=    -1.5648   YY=    28.6414   ZY=    -0.8272
   XZ=     5.4009   YZ=    -0.6560   ZZ=    36.4712
   Eigenvalues:    27.8163    29.6947    40.6025
     27  H    Isotropic =    32.3545   Anisotropy =    10.6599
   XX=    32.3699   YX=     0.2078   ZX=    -0.4310
   XY=     0.5196   YY=    39.2656   ZY=    -1.4284
   XZ=    -0.7584   YZ=    -1.6551   ZZ=    25.4279
   Eigenvalues:    25.2156    32.3867    39.4610
     28  H    Isotropic =    32.5721   Anisotropy =    14.2000
   XX=    38.0365   YX=    -4.5513   ZX=    -5.1745
   XY=    -4.5620   YY=    30.4578   ZY=     0.6657
   XZ=    -4.9173   YZ=     0.6924   ZZ=    29.2219
   Eigenvalues:    26.3390    29.3385    42.0387
     29  H    Isotropic =    32.7912   Anisotropy =    11.7528
   XX=    32.7649   YX=     4.7518   ZX=     2.7457
   XY=     4.7909   YY=    33.1440   ZY=     4.1414
   XZ=     2.7573   YZ=     4.0108   ZZ=    32.4647
   Eigenvalues:    27.8616    29.8856    40.6264
     30  H    Isotropic =    32.5144   Anisotropy =    10.8086
   XX=    32.4249   YX=    -0.7091   ZX=     0.0198
   XY=    -1.1304   YY=    35.0648   ZY=    -6.7404
   XZ=    -0.0716   YZ=    -6.5145   ZZ=    30.0534
   Eigenvalues:    25.4312    32.3918    39.7201
     31  H    Isotropic =    32.5752   Anisotropy =    14.1882
   XX=    37.7869   YX=     0.3376   ZX=    -6.9454
   XY=     0.6310   YY=    29.3154   ZY=    -0.9744
   XZ=    -6.8319   YZ=    -0.9228   ZZ=    30.6234
   Eigenvalues:    26.3341    29.3576    42.0340
 End of Minotr Frequency-dependent properties file   721 does not exist.
 End of Minotr Frequency-dependent properties file   722 does not exist.

 **********************************************************************

            Population analysis using the SCF density.

 **********************************************************************

 Orbital symmetries:
       Occupied  (A) (A) (A) (A) (A) (A) (A) (A) (A) (A) (A) (A)
                 (A) (A) (A) (A) (A) (A) (A) (A) (A) (A) (A) (A)
                 (A) (A) (A) (A) (A) (A) (A) (A) (A) (A) (A) (A)
                 (A) (A) (A) (A) (A) (A) (A) (A)
       Virtual   (A) (A) (A) (A) (A) (A) (A) (A) (A) (A) (A) (A)
                 (A) (A) (A) (A) (A) (A) (A) (A) (A) (A) (A) (A)
                 (A) (A) (A) (A) (A) (A) (A)
 The electronic state is 1-A.
 Alpha  occ. eigenvalues --  -20.23599 -11.08419 -11.05032 -11.04472 -11.04082
 Alpha  occ. eigenvalues --  -11.03683 -11.03356 -11.03272 -11.03239 -11.03201
 Alpha  occ. eigenvalues --  -11.01856  -1.27733  -1.07867  -1.03286  -0.96462
 Alpha  occ. eigenvalues --   -0.94818  -0.89031  -0.87653  -0.79671  -0.78023
 Alpha  occ. eigenvalues --   -0.74228  -0.66592  -0.63659  -0.61241  -0.59423
 Alpha  occ. eigenvalues --   -0.57434  -0.55551  -0.54543  -0.52951  -0.51764
 Alpha  occ. eigenvalues --   -0.51167  -0.50053  -0.49285  -0.47391  -0.46362
 Alpha  occ. eigenvalues --   -0.46219  -0.44297  -0.43364  -0.41824  -0.40828
 Alpha  occ. eigenvalues --   -0.39142  -0.38436  -0.36312  -0.32897
 Alpha virt. eigenvalues --    0.52640   0.56515   0.57000   0.60484   0.61522
 Alpha virt. eigenvalues --    0.61646   0.62112   0.63217   0.65033   0.67110
 Alpha virt. eigenvalues --    0.68634   0.70002   0.70957   0.71200   0.72018
 Alpha virt. eigenvalues --    0.72639   0.73314   0.73607   0.76449   0.76563
 Alpha virt. eigenvalues --    0.76626   0.78173   0.79144   0.80106   0.81072
 Alpha virt. eigenvalues --    0.81525   0.82878   0.83440   0.83739   0.84468
 Alpha virt. eigenvalues --    0.85227
          Condensed to atoms (all electrons):
              1          2          3          4          5          6
     1  C    4.743289   0.364491  -0.000315  -0.001122   0.000057  -0.024016
     2  C    0.364491   4.741504  -0.019613  -0.021101  -0.003362   0.362519
     3  C   -0.000315  -0.019613   4.744392  -0.023476   0.355174  -0.004200
     4  C   -0.001122  -0.021101  -0.023476   4.757415   0.360194   0.363522
     5  C    0.000057  -0.003362   0.355174   0.360194   4.790920  -0.021419
     6  C   -0.024016   0.362519  -0.004200   0.363522  -0.021419   4.754062
     7  C   -0.023081   0.360843   0.359914  -0.004752  -0.021807  -0.022306
     8  O   -0.000749  -0.000103   0.265913  -0.000831  -0.017980   0.000061
     9  C   -0.000001   0.000071  -0.018075  -0.019161   0.357623  -0.001510
    10  C    0.000000  -0.000001   0.000543  -0.002935  -0.020695  -0.000013
    11  C    0.000000  -0.000001  -0.002609   0.000568  -0.021131   0.000003
    12  H    0.381459  -0.020580  -0.000012   0.000031  -0.000002  -0.002027
    13  H    0.382816  -0.019477   0.000003  -0.000355   0.000033  -0.001962
    14  H    0.382516  -0.020159   0.000016   0.000000  -0.000001   0.001248
    15  H   -0.025932   0.382922   0.001175   0.001222   0.000004  -0.023585
    16  H   -0.000014   0.001127   0.377367   0.001172  -0.024420   0.000014
    17  H   -0.000359  -0.001589  -0.001761   0.381631  -0.021417  -0.022555
    18  H    0.000005   0.001199   0.001186   0.383117  -0.020185  -0.021594
    19  H   -0.000003   0.000005  -0.023313  -0.024456   0.378504   0.001236
    20  H   -0.003681  -0.021033   0.000010  -0.021622   0.001194   0.382590
    21  H    0.001321  -0.022624   0.000058  -0.023115  -0.001654   0.381349
    22  H   -0.003784  -0.021459  -0.021369   0.000010   0.001121   0.001157
    23  H    0.001294  -0.022420  -0.021429   0.000077  -0.000976  -0.000683
    24  H    0.000036  -0.000017  -0.040923   0.000011  -0.003091  -0.000005
    25  H   -0.000001   0.000034  -0.001600  -0.001271  -0.022130  -0.000481
    26  H    0.000000   0.000000   0.000009  -0.000055  -0.002485   0.000004
    27  H    0.000000  -0.000001  -0.000002  -0.001261  -0.001028  -0.000016
    28  H    0.000000   0.000000  -0.000011   0.000041   0.001090  -0.000001
    29  H    0.000000   0.000000  -0.000011   0.000012  -0.002557   0.000000
    30  H    0.000000  -0.000001  -0.001295  -0.000002  -0.000978   0.000001
    31  H    0.000000   0.000000   0.000038  -0.000012   0.001096   0.000000
              7          8          9         10         11         12
     1  C   -0.023081  -0.000749  -0.000001   0.000000   0.000000   0.381459
     2  C    0.360843  -0.000103   0.000071  -0.000001  -0.000001  -0.020580
     3  C    0.359914   0.265913  -0.018075   0.000543  -0.002609  -0.000012
     4  C   -0.004752  -0.000831  -0.019161  -0.002935   0.000568   0.000031
     5  C   -0.021807  -0.017980   0.357623  -0.020695  -0.021131  -0.000002
     6  C   -0.022306   0.000061  -0.001510  -0.000013   0.000003  -0.002027
     7  C    4.760412  -0.018214  -0.001027   0.000001   0.000031   0.001231
     8  O   -0.018214   7.850617   0.000205  -0.000001   0.000004   0.000010
     9  C   -0.001027   0.000205   4.742135   0.364135   0.363902   0.000000
    10  C    0.000001  -0.000001   0.364135   4.743814  -0.027277   0.000000
    11  C    0.000031   0.000004   0.363902  -0.027277   4.746052   0.000000
    12  H    0.001231   0.000010   0.000000   0.000000   0.000000   0.638719
    13  H   -0.001197   0.000294   0.000000   0.000000   0.000000  -0.022232
    14  H   -0.002656   0.000014   0.000000   0.000000   0.000000  -0.021900
    15  H   -0.023765  -0.000007  -0.000001   0.000000   0.000000  -0.003138
    16  H   -0.024147  -0.020612  -0.001828   0.000002  -0.001417   0.000001
    17  H    0.000073   0.000238   0.001093   0.000035  -0.000012   0.000040
    18  H    0.000018   0.000001  -0.002091  -0.001392   0.000007  -0.000003
    19  H    0.001107  -0.001764  -0.023411  -0.001976  -0.002308   0.000000
    20  H    0.001160  -0.000001   0.000012  -0.000001   0.000000   0.000145
    21  H   -0.000751   0.000000  -0.000562  -0.000013   0.000000   0.000027
    22  H    0.381783  -0.000872   0.000011   0.000000  -0.000001   0.000051
    23  H    0.380755   0.000590  -0.000655   0.000003   0.000012  -0.000037
    24  H    0.002574   0.257146   0.000003   0.000000   0.000005  -0.000001
    25  H   -0.000465  -0.000001   0.381450  -0.024514  -0.024667   0.000000
    26  H    0.000000   0.000000  -0.020833   0.381875  -0.001439   0.000000
    27  H    0.000001   0.000000  -0.019550   0.382904   0.001369   0.000000
    28  H    0.000000   0.000000  -0.019510   0.382629  -0.003874   0.000000
    29  H    0.000001  -0.000002  -0.020860  -0.001432   0.381789   0.000000
    30  H    0.000020   0.000003  -0.019585   0.001369   0.382696   0.000000
    31  H   -0.000001   0.000000  -0.019455  -0.003896   0.382692   0.000000
             13         14         15         16         17         18
     1  C    0.382816   0.382516  -0.025932  -0.000014  -0.000359   0.000005
     2  C   -0.019477  -0.020159   0.382922   0.001127  -0.001589   0.001199
     3  C    0.000003   0.000016   0.001175   0.377367  -0.001761   0.001186
     4  C   -0.000355   0.000000   0.001222   0.001172   0.381631   0.383117
     5  C    0.000033  -0.000001   0.000004  -0.024420  -0.021417  -0.020185
     6  C   -0.001962   0.001248  -0.023585   0.000014  -0.022555  -0.021594
     7  C   -0.001197  -0.002656  -0.023765  -0.024147   0.000073   0.000018
     8  O    0.000294   0.000014  -0.000007  -0.020612   0.000238   0.000001
     9  C    0.000000   0.000000  -0.000001  -0.001828   0.001093  -0.002091
    10  C    0.000000   0.000000   0.000000   0.000002   0.000035  -0.001392
    11  C    0.000000   0.000000   0.000000  -0.001417  -0.000012   0.000007
    12  H   -0.022232  -0.021900  -0.003138   0.000001   0.000040  -0.000003
    13  H    0.615889  -0.021310   0.001934   0.000001  -0.000419  -0.000007
    14  H   -0.021310   0.631323  -0.002074  -0.000003  -0.000008   0.000001
    15  H    0.001934  -0.002074   0.655542  -0.000030  -0.000003  -0.000030
    16  H    0.000001  -0.000003  -0.000030   0.659883   0.000022  -0.000030
    17  H   -0.000419  -0.000008  -0.000003   0.000022   0.638507  -0.024673
    18  H   -0.000007   0.000001  -0.000030  -0.000030  -0.024673   0.640438
    19  H    0.000002   0.000000   0.000002  -0.001278  -0.003192  -0.001619
    20  H    0.000005   0.000048  -0.000933   0.000002  -0.002587  -0.002038
    21  H    0.000003  -0.000036  -0.004177  -0.000008   0.001980  -0.002600
    22  H    0.000019   0.000173  -0.000868  -0.001790  -0.000013   0.000002
    23  H   -0.000007   0.000038  -0.004503  -0.002760   0.000004  -0.000006
    24  H    0.000015  -0.000001   0.000002  -0.003448   0.000005  -0.000010
    25  H    0.000000   0.000000   0.000008   0.000071  -0.000011   0.000057
    26  H    0.000000   0.000000   0.000000   0.000001  -0.000010  -0.000004
    27  H    0.000000   0.000000   0.000000   0.000000   0.000013  -0.001328
    28  H    0.000000   0.000000   0.000000   0.000000   0.000000   0.000015
    29  H    0.000000   0.000000   0.000000   0.000014  -0.000001   0.000002
    30  H    0.000000   0.000000   0.000000  -0.001255   0.000000   0.000000
    31  H    0.000000   0.000000   0.000000   0.000014   0.000000  -0.000001
             19         20         21         22         23         24
     1  C   -0.000003  -0.003681   0.001321  -0.003784   0.001294   0.000036
     2  C    0.000005  -0.021033  -0.022624  -0.021459  -0.022420  -0.000017
     3  C   -0.023313   0.000010   0.000058  -0.021369  -0.021429  -0.040923
     4  C   -0.024456  -0.021622  -0.023115   0.000010   0.000077   0.000011
     5  C    0.378504   0.001194  -0.001654   0.001121  -0.000976  -0.003091
     6  C    0.001236   0.382590   0.381349   0.001157  -0.000683  -0.000005
     7  C    0.001107   0.001160  -0.000751   0.381783   0.380755   0.002574
     8  O   -0.001764  -0.000001   0.000000  -0.000872   0.000590   0.257146
     9  C   -0.023411   0.000012  -0.000562   0.000011  -0.000655   0.000003
    10  C   -0.001976  -0.000001  -0.000013   0.000000   0.000003   0.000000
    11  C   -0.002308   0.000000   0.000000  -0.000001   0.000012   0.000005
    12  H    0.000000   0.000145   0.000027   0.000051  -0.000037  -0.000001
    13  H    0.000002   0.000005   0.000003   0.000019  -0.000007   0.000015
    14  H    0.000000   0.000048  -0.000036   0.000173   0.000038  -0.000001
    15  H    0.000002  -0.000933  -0.004177  -0.000868  -0.004503   0.000002
    16  H   -0.001278   0.000002  -0.000008  -0.001790  -0.002760  -0.003448
    17  H   -0.003192  -0.002587   0.001980  -0.000013   0.000004   0.000005
    18  H   -0.001619  -0.002038  -0.002600   0.000002  -0.000006  -0.000010
    19  H    0.660012  -0.000031  -0.000002  -0.000031   0.000004   0.000674
    20  H   -0.000031   0.640025  -0.023866  -0.000031  -0.000006   0.000000
    21  H   -0.000002  -0.023866   0.649777  -0.000006   0.000166   0.000000
    22  H   -0.000031  -0.000031  -0.000006   0.627928  -0.022438   0.000050
    23  H    0.000004  -0.000006   0.000166  -0.022438   0.642510  -0.000081
    24  H    0.000674   0.000000   0.000000   0.000050  -0.000081   0.612571
    25  H    0.001753   0.000001  -0.000615  -0.000002  -0.000449   0.000000
    26  H    0.000408   0.000000  -0.000001   0.000000   0.000000   0.000000
    27  H    0.000021   0.000001   0.000035   0.000000   0.000001   0.000000
    28  H    0.000002   0.000000  -0.000001   0.000000   0.000000   0.000000
    29  H    0.000390   0.000000   0.000000   0.000000  -0.000001   0.000002
    30  H    0.000024   0.000000   0.000001   0.000000   0.000045   0.000001
    31  H    0.000008   0.000000   0.000001   0.000000  -0.000002   0.000000
             25         26         27         28         29         30
     1  C   -0.000001   0.000000   0.000000   0.000000   0.000000   0.000000
     2  C    0.000034   0.000000  -0.000001   0.000000   0.000000  -0.000001
     3  C   -0.001600   0.000009  -0.000002  -0.000011  -0.000011  -0.001295
     4  C   -0.001271  -0.000055  -0.001261   0.000041   0.000012  -0.000002
     5  C   -0.022130  -0.002485  -0.001028   0.001090  -0.002557  -0.000978
     6  C   -0.000481   0.000004  -0.000016  -0.000001   0.000000   0.000001
     7  C   -0.000465   0.000000   0.000001   0.000000   0.000001   0.000020
     8  O   -0.000001   0.000000   0.000000   0.000000  -0.000002   0.000003
     9  C    0.381450  -0.020833  -0.019550  -0.019510  -0.020860  -0.019585
    10  C   -0.024514   0.381875   0.382904   0.382629  -0.001432   0.001369
    11  C   -0.024667  -0.001439   0.001369  -0.003874   0.381789   0.382696
    12  H    0.000000   0.000000   0.000000   0.000000   0.000000   0.000000
    13  H    0.000000   0.000000   0.000000   0.000000   0.000000   0.000000
    14  H    0.000000   0.000000   0.000000   0.000000   0.000000   0.000000
    15  H    0.000008   0.000000   0.000000   0.000000   0.000000   0.000000
    16  H    0.000071   0.000001   0.000000   0.000000   0.000014  -0.001255
    17  H   -0.000011  -0.000010   0.000013   0.000000  -0.000001   0.000000
    18  H    0.000057  -0.000004  -0.001328   0.000015   0.000002   0.000000
    19  H    0.001753   0.000408   0.000021   0.000002   0.000390   0.000024
    20  H    0.000001   0.000000   0.000001   0.000000   0.000000   0.000000
    21  H   -0.000615  -0.000001   0.000035  -0.000001   0.000000   0.000001
    22  H   -0.000002   0.000000   0.000000   0.000000   0.000000   0.000000
    23  H   -0.000449   0.000000   0.000001   0.000000  -0.000001   0.000045
    24  H    0.000000   0.000000   0.000000   0.000000   0.000002   0.000001
    25  H    0.649379   0.001891  -0.003042  -0.001507   0.001893  -0.003024
    26  H    0.001891   0.630840  -0.021442  -0.021571   0.000267  -0.000004
    27  H   -0.003042  -0.021442   0.630729  -0.022666  -0.000004  -0.000039
    28  H   -0.001507  -0.021571  -0.022666   0.630923   0.000014   0.000063
    29  H    0.001893   0.000267  -0.000004   0.000014   0.631915  -0.021595
    30  H   -0.003024  -0.000004  -0.000039   0.000063  -0.021595   0.632640
    31  H   -0.001496   0.000013   0.000063  -0.000122  -0.021520  -0.022653
             31
     1  C    0.000000
     2  C    0.000000
     3  C    0.000038
     4  C   -0.000012
     5  C    0.001096
     6  C    0.000000
     7  C   -0.000001
     8  O    0.000000
     9  C   -0.019455
    10  C   -0.003896
    11  C    0.382692
    12  H    0.000000
    13  H    0.000000
    14  H    0.000000
    15  H    0.000000
    16  H    0.000014
    17  H    0.000000
    18  H   -0.000001
    19  H    0.000008
    20  H    0.000000
    21  H    0.000001
    22  H    0.000000
    23  H   -0.000002
    24  H    0.000000
    25  H   -0.001496
    26  H    0.000013
    27  H    0.000063
    28  H   -0.000122
    29  H   -0.021520
    30  H   -0.022653
    31  H    0.629980
 Mulliken atomic charges:
              1
     1  C   -0.174226
     2  C   -0.021173
     3  C    0.074217
     4  C   -0.103495
     5  C   -0.039693
     6  C   -0.101391
     7  C   -0.105755
     8  O   -0.313958
     9  C   -0.022524
    10  C   -0.173165
    11  C   -0.174394
    12  H    0.048216
    13  H    0.065954
    14  H    0.052772
    15  H    0.046234
    16  H    0.043350
    17  H    0.054968
    18  H    0.051565
    19  H    0.039232
    20  H    0.050637
    21  H    0.045316
    22  H    0.060356
    23  H    0.050956
    24  H    0.174482
    25  H    0.048742
    26  H    0.052537
    27  H    0.055242
    28  H    0.054488
    29  H    0.051684
    30  H    0.053570
    31  H    0.055253
 Sum of Mulliken atomic charges =   0.00000
 Mulliken charges with hydrogens summed into heavy atoms:
              1
     1  C   -0.007283
     2  C    0.025060
     3  C    0.117567
     4  C    0.003038
     5  C   -0.000461
     6  C   -0.005438
     7  C    0.005558
     8  O   -0.139476
     9  C    0.026218
    10  C   -0.010898
    11  C   -0.013886
 Sum of Mulliken charges with hydrogens summed into heavy atoms =   0.00000
 Electronic spatial extent (au):  <R**2>=           1977.2566
 Charge=              0.0000 electrons
 Dipole moment (field-independent basis, Debye):
    X=              1.3902    Y=             -0.0847    Z=             -0.0106  Tot=              1.3929
 Quadrupole moment (field-independent basis, Debye-Ang):
   XX=            -70.4954   YY=            -67.6619   ZZ=            -65.6949
   XY=              2.3898   XZ=              1.5598   YZ=              0.8448
 Traceless Quadrupole moment (field-independent basis, Debye-Ang):
   XX=             -2.5447   YY=              0.2888   ZZ=              2.2558
   XY=              2.3898   XZ=              1.5598   YZ=              0.8448
 Octapole moment (field-independent basis, Debye-Ang**2):
  XXX=             -1.5820  YYY=             10.9132  ZZZ=             10.9003  XYY=              0.6082
  XXY=             -1.0692  XXZ=             -1.9054  XZZ=             -0.3624  YZZ=              7.4971
  YYZ=              4.7859  XYZ=              3.9224
 Hexadecapole moment (field-independent basis, Debye-Ang**3):
 XXXX=          -1605.3817 YYYY=           -588.6514 ZZZZ=           -316.1595 XXXY=             -8.1614
 XXXZ=             -4.7006 YYYX=             -1.6033 YYYZ=             16.7829 ZZZX=             -7.1503
 ZZZY=             23.5544 XXYY=           -373.2682 XXZZ=           -317.7692 YYZZ=           -144.1168
 XXYZ=              0.7277 YYXZ=              2.4118 ZZXY=             -3.0347
 N-N= 7.039228095402D+02 E-N=-2.479917262050D+03  KE= 4.555135010524D+02
 ******************************Gaussian NBO Version 3.1******************************
             N A T U R A L   A T O M I C   O R B I T A L   A N D
          N A T U R A L   B O N D   O R B I T A L   A N A L Y S I S
 ******************************Gaussian NBO Version 3.1******************************
       /RESON  / : Allow strongly delocalized NBO set
       /NLMO   / : Form Natural Localized Molecular Orbitals
       /NMR /    : Analyze NMR Sheilding Tensor 

 Analyzing the SCF density

 Job title: comment                                                         

 Storage needed:     19864 in NPA,     23691 in NBO,     45933 in NLMO (  33549317 available)


 NATURAL POPULATIONS:  Natural atomic orbital occupancies 
                                                          
   NAO  Atom  No  lang   Type(AO)    Occupancy      Energy
 ----------------------------------------------------------
     1    C    1  S      Cor( 1S)     1.99997     -10.95220
     2    C    1  S      Val( 2S)     1.08049      -0.16958
     3    C    1  px     Val( 2p)     0.99708       0.09889
     4    C    1  py     Val( 2p)     1.02527       0.09748
     5    C    1  pz     Val( 2p)     1.02738       0.09659

     6    C    2  S      Cor( 1S)     1.99997     -10.98411
     7    C    2  S      Val( 2S)     1.08090      -0.18735
     8    C    2  px     Val( 2p)     0.95691       0.11704
     9    C    2  py     Val( 2p)     0.95734       0.11662
    10    C    2  pz     Val( 2p)     0.98691       0.10787

    11    C    3  S      Cor( 1S)     1.99988     -11.03330
    12    C    3  S      Val( 2S)     1.08896      -0.21648
    13    C    3  px     Val( 2p)     0.91375       0.10393
    14    C    3  py     Val( 2p)     0.96554       0.09394
    15    C    3  pz     Val( 2p)     0.88970       0.10488

    16    C    4  S      Cor( 1S)     1.99995     -10.97136
    17    C    4  S      Val( 2S)     1.08390      -0.18608
    18    C    4  px     Val( 2p)     1.00110       0.09537
    19    C    4  py     Val( 2p)     0.98927       0.10056
    20    C    4  pz     Val( 2p)     0.99252       0.09964

    21    C    5  S      Cor( 1S)     1.99995     -10.99054
    22    C    5  S      Val( 2S)     1.10481      -0.21589
    23    C    5  px     Val( 2p)     0.95971       0.10382
    24    C    5  py     Val( 2p)     0.97373       0.09502
    25    C    5  pz     Val( 2p)     0.97853       0.09978

    26    C    6  S      Cor( 1S)     1.99996     -10.97022
    27    C    6  S      Val( 2S)     1.08241      -0.18321
    28    C    6  px     Val( 2p)     0.99839       0.09846
    29    C    6  py     Val( 2p)     0.99206       0.09918
    30    C    6  pz     Val( 2p)     0.99135       0.10257

    31    C    7  S      Cor( 1S)     1.99995     -10.97589
    32    C    7  S      Val( 2S)     1.09056      -0.19496
    33    C    7  px     Val( 2p)     1.00358       0.09321
    34    C    7  py     Val( 2p)     0.99664       0.09310
    35    C    7  pz     Val( 2p)     0.99036       0.09249

    36    O    8  S      Cor( 1S)     1.99999     -20.14011
    37    O    8  S      Val( 2S)     1.75043      -0.99855
    38    O    8  px     Val( 2p)     1.49820      -0.18881
    39    O    8  py     Val( 2p)     1.81298      -0.30348
    40    O    8  pz     Val( 2p)     1.27346      -0.07864

    41    C    9  S      Cor( 1S)     1.99996     -10.99474
    42    C    9  S      Val( 2S)     1.08566      -0.20075
    43    C    9  px     Val( 2p)     0.95440       0.10640
    44    C    9  py     Val( 2p)     0.95609       0.10594
    45    C    9  pz     Val( 2p)     0.98456       0.10176

    46    C   10  S      Cor( 1S)     1.99997     -10.96626
    47    C   10  S      Val( 2S)     1.08126      -0.18442
    48    C   10  px     Val( 2p)     1.01403       0.08323
    49    C   10  py     Val( 2p)     1.00960       0.08538
    50    C   10  pz     Val( 2p)     1.02407       0.08291

    51    C   11  S      Cor( 1S)     1.99997     -10.96741
    52    C   11  S      Val( 2S)     1.08152      -0.18603
    53    C   11  px     Val( 2p)     1.01662       0.08071
    54    C   11  py     Val( 2p)     1.00646       0.08279
    55    C   11  pz     Val( 2p)     1.02544       0.08306

    56    H   12  S      Val( 1S)     0.96859       0.08158

    57    H   13  S      Val( 1S)     0.95297       0.09976

    58    H   14  S      Val( 1S)     0.96426       0.08615

    59    H   15  S      Val( 1S)     0.97822       0.07022

    60    H   16  S      Val( 1S)     0.99306       0.05316

    61    H   17  S      Val( 1S)     0.96656       0.07932

    62    H   18  S      Val( 1S)     0.96973       0.07573

    63    H   19  S      Val( 1S)     0.98552       0.05437

    64    H   20  S      Val( 1S)     0.96991       0.07477

    65    H   21  S      Val( 1S)     0.97534       0.07268

    66    H   22  S      Val( 1S)     0.96099       0.07828

    67    H   23  S      Val( 1S)     0.96941       0.06834

    68    H   24  S      Val( 1S)     0.81310       0.07431

    69    H   25  S      Val( 1S)     0.97707       0.06505

    70    H   26  S      Val( 1S)     0.96483       0.07158

    71    H   27  S      Val( 1S)     0.96249       0.07664

    72    H   28  S      Val( 1S)     0.96282       0.07332

    73    H   29  S      Val( 1S)     0.96560       0.06937

    74    H   30  S      Val( 1S)     0.96405       0.07384

    75    H   31  S      Val( 1S)     0.96207       0.07275


 Summary of Natural Population Analysis:                  
                                                          
                                       Natural Population 
                Natural  -----------------------------------------------
    Atom  No    Charge         Core      Valence    Rydberg      Total
 -----------------------------------------------------------------------
      C    1   -0.13019      1.99997     4.13022    0.00000     6.13019
      C    2    0.01798      1.99997     3.98205    0.00000     5.98202
      C    3    0.14216      1.99988     3.85796    0.00000     5.85784
      C    4   -0.06674      1.99995     4.06679    0.00000     6.06674
      C    5   -0.01673      1.99995     4.01678    0.00000     6.01673
      C    6   -0.06417      1.99996     4.06421    0.00000     6.06417
      C    7   -0.08109      1.99995     4.08113    0.00000     6.08109
      O    8   -0.33506      1.99999     6.33507    0.00000     8.33506
      C    9    0.01933      1.99996     3.98071    0.00000     5.98067
      C   10   -0.12893      1.99997     4.12896    0.00000     6.12893
      C   11   -0.13001      1.99997     4.13004    0.00000     6.13001
      H   12    0.03141      0.00000     0.96859    0.00000     0.96859
      H   13    0.04703      0.00000     0.95297    0.00000     0.95297
      H   14    0.03574      0.00000     0.96426    0.00000     0.96426
      H   15    0.02178      0.00000     0.97822    0.00000     0.97822
      H   16    0.00694      0.00000     0.99306    0.00000     0.99306
      H   17    0.03344      0.00000     0.96656    0.00000     0.96656
      H   18    0.03027      0.00000     0.96973    0.00000     0.96973
      H   19    0.01448      0.00000     0.98552    0.00000     0.98552
      H   20    0.03009      0.00000     0.96991    0.00000     0.96991
      H   21    0.02466      0.00000     0.97534    0.00000     0.97534
      H   22    0.03901      0.00000     0.96099    0.00000     0.96099
      H   23    0.03059      0.00000     0.96941    0.00000     0.96941
      H   24    0.18690      0.00000     0.81310    0.00000     0.81310
      H   25    0.02293      0.00000     0.97707    0.00000     0.97707
      H   26    0.03517      0.00000     0.96483    0.00000     0.96483
      H   27    0.03751      0.00000     0.96249    0.00000     0.96249
      H   28    0.03718      0.00000     0.96282    0.00000     0.96282
      H   29    0.03440      0.00000     0.96560    0.00000     0.96560
      H   30    0.03595      0.00000     0.96405    0.00000     0.96405
      H   31    0.03793      0.00000     0.96207    0.00000     0.96207
 =======================================================================
   * Total *    0.00000     21.99952    66.00048    0.00000    88.00000

                                 Natural Population      
 --------------------------------------------------------
   Core                      21.99952 ( 99.9978% of  22)
   Valence                   66.00048 (100.0007% of  66)
   Natural Minimal Basis     88.00000 (100.0000% of  88)
   Natural Rydberg Basis      0.00000 (  0.0000% of  88)
 --------------------------------------------------------

    Atom  No          Natural Electron Configuration
 ----------------------------------------------------------------------------
      C    1      [core]2S( 1.08)2p( 3.05)
      C    2      [core]2S( 1.08)2p( 2.90)
      C    3      [core]2S( 1.09)2p( 2.77)
      C    4      [core]2S( 1.08)2p( 2.98)
      C    5      [core]2S( 1.10)2p( 2.91)
      C    6      [core]2S( 1.08)2p( 2.98)
      C    7      [core]2S( 1.09)2p( 2.99)
      O    8      [core]2S( 1.75)2p( 4.58)
      C    9      [core]2S( 1.09)2p( 2.90)
      C   10      [core]2S( 1.08)2p( 3.05)
      C   11      [core]2S( 1.08)2p( 3.05)
      H   12            1S( 0.97)
      H   13            1S( 0.95)
      H   14            1S( 0.96)
      H   15            1S( 0.98)
      H   16            1S( 0.99)
      H   17            1S( 0.97)
      H   18            1S( 0.97)
      H   19            1S( 0.99)
      H   20            1S( 0.97)
      H   21            1S( 0.98)
      H   22            1S( 0.96)
      H   23            1S( 0.97)
      H   24            1S( 0.81)
      H   25            1S( 0.98)
      H   26            1S( 0.96)
      H   27            1S( 0.96)
      H   28            1S( 0.96)
      H   29            1S( 0.97)
      H   30            1S( 0.96)
      H   31            1S( 0.96)


 NATURAL BOND ORBITAL ANALYSIS:

                       Occupancies       Lewis Structure    Low   High
           Occ.    -------------------  -----------------   occ   occ
  Cycle   Thresh.   Lewis   Non-Lewis     CR  BD  3C  LP    (L)   (NL)   Dev
 =============================================================================
   1(1)    1.90    87.63696   0.36304     11  31   0   2     0      0    0.02
 -----------------------------------------------------------------------------

 Structure accepted: No low occupancy Lewis orbitals

 --------------------------------------------------------
   Core                     21.99952 ( 99.998% of  22)
   Valence Lewis            65.63744 ( 99.451% of  66)
  ==================       ============================
   Total Lewis              87.63696 ( 99.587% of  88)
  -----------------------------------------------------
   Valence non-Lewis         0.36304 (  0.413% of  88)
   Rydberg non-Lewis         0.00000 (  0.000% of  88)
  ==================       ============================
   Total non-Lewis           0.36304 (  0.413% of  88)
 --------------------------------------------------------


       (Occupancy)   Bond orbital/ Coefficients/ Hybrids
 ---------------------------------------------------------------------------------
     1. (1.99066) BD ( 1) C   1 - C   2  
                ( 50.67%)   0.7118* C   1 s( 25.81%)p 2.87( 74.19%)
                                            0.0001  0.5081  0.7239 -0.1170 -0.4518
                ( 49.33%)   0.7024* C   2 s( 25.18%)p 2.97( 74.82%)
                                            0.0000  0.5018 -0.6955  0.1439  0.4938
     2. (1.99478) BD ( 1) C   1 - H  12  
                ( 51.57%)   0.7181* C   1 s( 24.37%)p 3.10( 75.63%)
                                            0.0000  0.4937 -0.4436 -0.7470  0.0377
                ( 48.43%)   0.6959* H  12 s(100.00%)
                                            1.0000
     3. (1.99542) BD ( 1) C   1 - H  13  
                ( 52.43%)   0.7241* C   1 s( 25.09%)p 2.99( 74.91%)
                                            0.0000  0.5009  0.1917  0.2578  0.8037
                ( 47.57%)   0.6897* H  13 s(100.00%)
                                            1.0000
     4. (1.99471) BD ( 1) C   1 - H  14  
                ( 51.79%)   0.7197* C   1 s( 24.72%)p 3.04( 75.28%)
                                            0.0000  0.4972 -0.4923  0.6015 -0.3854
                ( 48.21%)   0.6943* H  14 s(100.00%)
                                            1.0000
     5. (1.98524) BD ( 1) C   2 - C   6  
                ( 49.53%)   0.7038* C   2 s( 25.23%)p 2.96( 74.77%)
                                            0.0000  0.5023  0.5174 -0.5753  0.3860
                ( 50.47%)   0.7104* C   6 s( 25.45%)p 2.93( 74.55%)
                                            0.0001  0.5044 -0.5079  0.6067 -0.3457
     6. (1.98504) BD ( 1) C   2 - C   7  
                ( 49.27%)   0.7020* C   2 s( 25.28%)p 2.96( 74.72%)
                                            0.0000  0.5028  0.4280  0.7407 -0.1240
                ( 50.73%)   0.7122* C   7 s( 25.37%)p 2.94( 74.63%)
                                            0.0001  0.5036 -0.4124 -0.7335  0.1957
     7. (1.98454) BD ( 1) C   2 - H  15  
                ( 50.97%)   0.7139* C   2 s( 24.31%)p 3.11( 75.69%)
                                            0.0000  0.4931 -0.2558 -0.3157 -0.7693
                ( 49.03%)   0.7002* H  15 s(100.00%)
                                            1.0000
     8. (1.98208) BD ( 1) C   3 - C   5  
                ( 49.97%)   0.7069* C   3 s( 25.81%)p 2.87( 74.19%)
                                            0.0001  0.5080  0.5250 -0.6128  0.3012
                ( 50.03%)   0.7073* C   5 s( 24.98%)p 3.00( 75.02%)
                                            0.0000  0.4998 -0.5159  0.6019 -0.3490
     9. (1.98695) BD ( 1) C   3 - C   7  
                ( 50.05%)   0.7075* C   3 s( 26.58%)p 2.76( 73.42%)
                                            0.0000  0.5156 -0.4937 -0.3053 -0.6303
                ( 49.95%)   0.7068* C   7 s( 25.27%)p 2.96( 74.73%)
                                            0.0001  0.5027  0.4675  0.2632  0.6778
    10. (1.98831) BD ( 1) C   3 - O   8  
                ( 40.96%)   0.6400* C   3 s( 21.92%)p 3.56( 78.08%)
                                           -0.0001  0.4682 -0.5211  0.2671  0.6618
                ( 59.04%)   0.7684* O   8 s( 16.37%)p 5.11( 83.63%)
                                            0.0000  0.4045  0.6006 -0.2932 -0.6242
    11. (1.98815) BD ( 1) C   3 - H  16  
                ( 50.63%)   0.7116* C   3 s( 25.69%)p 2.89( 74.31%)
                                            0.0000  0.5068  0.4573  0.6782 -0.2722
                ( 49.37%)   0.7026* H  16 s(100.00%)
                                            1.0000
    12. (1.98436) BD ( 1) C   4 - C   5  
                ( 50.14%)   0.7081* C   4 s( 25.29%)p 2.95( 74.71%)
                                            0.0001  0.5029  0.4760  0.6819 -0.2357
                ( 49.86%)   0.7061* C   5 s( 25.00%)p 3.00( 75.00%)
                                            0.0000  0.5000 -0.4635 -0.7098  0.1771
    13. (1.99099) BD ( 1) C   4 - C   6  
                ( 50.01%)   0.7072* C   4 s( 25.33%)p 2.95( 74.67%)
                                            0.0000  0.5033 -0.4434 -0.2966 -0.6798
                ( 49.99%)   0.7070* C   6 s( 25.35%)p 2.94( 74.65%)
                                            0.0000  0.5035  0.4426  0.3304  0.6644
    14. (1.98939) BD ( 1) C   4 - H  17  
                ( 51.67%)   0.7188* C   4 s( 24.42%)p 3.09( 75.58%)
                                            0.0000  0.4942 -0.5560  0.2394  0.6240
                ( 48.33%)   0.6952* H  17 s(100.00%)
                                            1.0000
    15. (1.98906) BD ( 1) C   4 - H  18  
                ( 51.50%)   0.7177* C   4 s( 24.96%)p 3.01( 75.04%)
                                            0.0000  0.4996  0.5174 -0.6243  0.3048
                ( 48.50%)   0.6964* H  18 s(100.00%)
                                            1.0000
    16. (1.97890) BD ( 1) C   5 - C   9  
                ( 50.02%)   0.7073* C   5 s( 25.50%)p 2.92( 74.50%)
                                            0.0001  0.5050  0.6340 -0.1960 -0.5519
                ( 49.98%)   0.7070* C   9 s( 25.41%)p 2.94( 74.59%)
                                            0.0001  0.5040 -0.6508  0.1864  0.5364
    17. (1.98323) BD ( 1) C   5 - H  19  
                ( 50.62%)   0.7115* C   5 s( 24.52%)p 3.08( 75.48%)
                                            0.0000  0.4951  0.3422  0.3091  0.7363
                ( 49.38%)   0.7027* H  19 s(100.00%)
                                            1.0000
    18. (1.98963) BD ( 1) C   6 - H  20  
                ( 51.48%)   0.7175* C   6 s( 24.88%)p 3.02( 75.12%)
                                            0.0000  0.4988 -0.4847 -0.6638  0.2749
                ( 48.52%)   0.6966* H  20 s(100.00%)
                                            1.0000
    19. (1.99017) BD ( 1) C   6 - H  21  
                ( 51.24%)   0.7158* C   6 s( 24.32%)p 3.11( 75.68%)
                                            0.0000  0.4932  0.5579 -0.2865 -0.6029
                ( 48.76%)   0.6983* H  21 s(100.00%)
                                            1.0000
    20. (1.98857) BD ( 1) C   7 - H  22  
                ( 51.90%)   0.7204* C   7 s( 25.00%)p 3.00( 75.00%)
                                            0.0000  0.5000 -0.5763  0.6111 -0.2106
                ( 48.10%)   0.6935* H  22 s(100.00%)
                                            1.0000
    21. (1.98785) BD ( 1) C   7 - H  23  
                ( 51.43%)   0.7171* C   7 s( 24.36%)p 3.11( 75.64%)
                                            0.0000  0.4936  0.5284 -0.1387 -0.6767
                ( 48.57%)   0.6969* H  23 s(100.00%)
                                            1.0000
    22. (1.98946) BD ( 1) O   8 - H  24  
                ( 59.36%)   0.7704* O   8 s( 16.70%)p 4.99( 83.30%)
                                            0.0000  0.4087  0.5558  0.3191  0.6498
                ( 40.64%)   0.6375* H  24 s(100.00%)
                                            1.0000
    23. (1.98910) BD ( 1) C   9 - C  10  
                ( 49.08%)   0.7006* C   9 s( 24.97%)p 3.01( 75.03%)
                                            0.0000  0.4997  0.5008 -0.6133  0.3512
                ( 50.92%)   0.7136* C  10 s( 25.79%)p 2.88( 74.21%)
                                            0.0001  0.5078 -0.5174  0.6133 -0.3136
    24. (1.98913) BD ( 1) C   9 - C  11  
                ( 48.96%)   0.6997* C   9 s( 24.83%)p 3.03( 75.17%)
                                            0.0000  0.4983  0.4739  0.7122 -0.1408
                ( 51.04%)   0.7144* C  11 s( 25.81%)p 2.87( 74.19%)
                                            0.0001  0.5081 -0.4905 -0.6877  0.1681
    25. (1.98474) BD ( 1) C   9 - H  25  
                ( 51.09%)   0.7148* C   9 s( 24.80%)p 3.03( 75.20%)
                                            0.0000  0.4980 -0.3180 -0.2860 -0.7544
                ( 48.91%)   0.6994* H  25 s(100.00%)
                                            1.0000
    26. (1.99563) BD ( 1) C  10 - H  26  
                ( 51.80%)   0.7197* C  10 s( 24.87%)p 3.02( 75.13%)
                                            0.0000  0.4987  0.2597  0.2144  0.7987
                ( 48.20%)   0.6942* H  26 s(100.00%)
                                            1.0000
    27. (1.99452) BD ( 1) C  10 - H  27  
                ( 51.89%)   0.7204* C  10 s( 24.69%)p 3.05( 75.31%)
                                            0.0000  0.4968 -0.4265 -0.7552  0.0312
                ( 48.11%)   0.6936* H  27 s(100.00%)
                                            1.0000
    28. (1.99425) BD ( 1) C  10 - H  28  
                ( 51.86%)   0.7201* C  10 s( 24.66%)p 3.06( 75.34%)
                                            0.0000  0.4965  0.6950 -0.0870 -0.5127
                ( 48.14%)   0.6938* H  28 s(100.00%)
                                            1.0000
    29. (1.99570) BD ( 1) C  11 - H  29  
                ( 51.77%)   0.7195* C  11 s( 24.85%)p 3.02( 75.15%)
                                            0.0000  0.4985  0.2558  0.3674  0.7424
                ( 48.23%)   0.6945* H  29 s(100.00%)
                                            1.0000
    30. (1.99441) BD ( 1) C  11 - H  30  
                ( 51.82%)   0.7198* C  11 s( 24.67%)p 3.05( 75.33%)
                                            0.0000  0.4967 -0.4535  0.5772 -0.4630
                ( 48.18%)   0.6941* H  30 s(100.00%)
                                            1.0000
    31. (1.99435) BD ( 1) C  11 - H  31  
                ( 51.90%)   0.7204* C  11 s( 24.66%)p 3.06( 75.34%)
                                            0.0000  0.4966  0.6988 -0.2426 -0.4542
                ( 48.10%)   0.6936* H  31 s(100.00%)
                                            1.0000
    32. (1.99997) CR ( 1) C   1           s(100.00%)
                                            1.0000  0.0000 -0.0001  0.0000  0.0000
    33. (1.99997) CR ( 1) C   2           s(100.00%)
                                            1.0000  0.0000  0.0000  0.0000  0.0000
    34. (1.99988) CR ( 1) C   3           s(100.00%)
                                            1.0000  0.0000 -0.0001  0.0000  0.0000
    35. (1.99995) CR ( 1) C   4           s(100.00%)
                                            1.0000  0.0000  0.0000  0.0000  0.0001
    36. (1.99995) CR ( 1) C   5           s(100.00%)
                                            1.0000  0.0000  0.0000  0.0000  0.0000
    37. (1.99996) CR ( 1) C   6           s(100.00%)
                                            1.0000  0.0000  0.0000 -0.0001  0.0000
    38. (1.99995) CR ( 1) C   7           s(100.00%)
                                            1.0000 -0.0001  0.0000  0.0001 -0.0001
    39. (1.99999) CR ( 1) O   8           s(100.00%)
                                            1.0000  0.0000  0.0000  0.0000  0.0000
    40. (1.99996) CR ( 1) C   9           s(100.00%)
                                            1.0000  0.0000  0.0001  0.0000  0.0000
    41. (1.99997) CR ( 1) C  10           s(100.00%)
                                            1.0000  0.0000  0.0001 -0.0001  0.0000
    42. (1.99997) CR ( 1) C  11           s(100.00%)
                                            1.0000  0.0000  0.0001  0.0000  0.0000
    43. (1.99280) LP ( 1) O   8           s( 66.74%)p 0.50( 33.26%)
                                            0.0000  0.8170 -0.5733 -0.0621  0.0070
    44. (1.97534) LP ( 2) O   8           s(  0.19%)p99.99( 99.81%)
                                            0.0000  0.0433 -0.0409  0.8991 -0.4337
    45. (0.01078) BD*( 1) C   1 - C   2  
                ( 49.33%)   0.7024* C   1 s( 25.81%)p 2.87( 74.19%)
                                           -0.0001 -0.5081 -0.7239  0.1170  0.4518
                ( 50.67%)  -0.7118* C   2 s( 25.18%)p 2.97( 74.82%)
                                            0.0000 -0.5018  0.6955 -0.1439 -0.4938
    46. (0.00488) BD*( 1) C   1 - H  12  
                ( 48.43%)   0.6959* C   1 s( 24.37%)p 3.10( 75.63%)
                                            0.0000 -0.4937  0.4436  0.7470 -0.0377
                ( 51.57%)  -0.7181* H  12 s(100.00%)
                                           -1.0000
    47. (0.00731) BD*( 1) C   1 - H  13  
                ( 47.57%)   0.6897* C   1 s( 25.09%)p 2.99( 74.91%)
                                            0.0000 -0.5009 -0.1917 -0.2578 -0.8037
                ( 52.43%)  -0.7241* H  13 s(100.00%)
                                           -1.0000
    48. (0.00503) BD*( 1) C   1 - H  14  
                ( 48.21%)   0.6943* C   1 s( 24.72%)p 3.04( 75.28%)
                                            0.0000 -0.4972  0.4923 -0.6015  0.3854
                ( 51.79%)  -0.7197* H  14 s(100.00%)
                                           -1.0000
    49. (0.01633) BD*( 1) C   2 - C   6  
                ( 50.47%)   0.7104* C   2 s( 25.23%)p 2.96( 74.77%)
                                            0.0000  0.5023  0.5174 -0.5753  0.3860
                ( 49.53%)  -0.7038* C   6 s( 25.45%)p 2.93( 74.55%)
                                            0.0001  0.5044 -0.5079  0.6067 -0.3457
    50. (0.01677) BD*( 1) C   2 - C   7  
                ( 50.73%)   0.7122* C   2 s( 25.28%)p 2.96( 74.72%)
                                            0.0000  0.5028  0.4280  0.7407 -0.1240
                ( 49.27%)  -0.7020* C   7 s( 25.37%)p 2.94( 74.63%)
                                            0.0001  0.5036 -0.4124 -0.7335  0.1957
    51. (0.01001) BD*( 1) C   2 - H  15  
                ( 49.03%)   0.7002* C   2 s( 24.31%)p 3.11( 75.69%)
                                            0.0000 -0.4931  0.2558  0.3157  0.7693
                ( 50.97%)  -0.7139* H  15 s(100.00%)
                                           -1.0000
    52. (0.03285) BD*( 1) C   3 - C   5  
                ( 50.03%)   0.7073* C   3 s( 25.81%)p 2.87( 74.19%)
                                            0.0001  0.5080  0.5250 -0.6128  0.3012
                ( 49.97%)  -0.7069* C   5 s( 24.98%)p 3.00( 75.02%)
                                            0.0000  0.4998 -0.5159  0.6019 -0.3490
    53. (0.02217) BD*( 1) C   3 - C   7  
                ( 49.95%)   0.7068* C   3 s( 26.58%)p 2.76( 73.42%)
                                            0.0000 -0.5156  0.4937  0.3053  0.6303
                ( 50.05%)  -0.7075* C   7 s( 25.27%)p 2.96( 74.73%)
                                           -0.0001 -0.5027 -0.4675 -0.2632 -0.6778
    54. (0.02211) BD*( 1) C   3 - O   8  
                ( 59.04%)   0.7684* C   3 s( 21.92%)p 3.56( 78.08%)
                                           -0.0001  0.4682 -0.5211  0.2671  0.6618
                ( 40.96%)  -0.6400* O   8 s( 16.37%)p 5.11( 83.63%)
                                            0.0000  0.4045  0.6006 -0.2932 -0.6242
    55. (0.02284) BD*( 1) C   3 - H  16  
                ( 49.37%)   0.7026* C   3 s( 25.69%)p 2.89( 74.31%)
                                            0.0000 -0.5068 -0.4573 -0.6782  0.2722
                ( 50.63%)  -0.7116* H  16 s(100.00%)
                                           -1.0000
    56. (0.01654) BD*( 1) C   4 - C   5  
                ( 49.86%)   0.7061* C   4 s( 25.29%)p 2.95( 74.71%)
                                           -0.0001 -0.5029 -0.4760 -0.6819  0.2357
                ( 50.14%)  -0.7081* C   5 s( 25.00%)p 3.00( 75.00%)
                                            0.0000 -0.5000  0.4635  0.7098 -0.1771
    57. (0.01218) BD*( 1) C   4 - C   6  
                ( 49.99%)   0.7070* C   4 s( 25.33%)p 2.95( 74.67%)
                                            0.0000 -0.5033  0.4434  0.2966  0.6798
                ( 50.01%)  -0.7072* C   6 s( 25.35%)p 2.94( 74.65%)
                                            0.0000 -0.5035 -0.4426 -0.3304 -0.6644
    58. (0.00977) BD*( 1) C   4 - H  17  
                ( 48.33%)   0.6952* C   4 s( 24.42%)p 3.09( 75.58%)
                                            0.0000 -0.4942  0.5560 -0.2394 -0.6240
                ( 51.67%)  -0.7188* H  17 s(100.00%)
                                           -1.0000
    59. (0.00988) BD*( 1) C   4 - H  18  
                ( 48.50%)   0.6964* C   4 s( 24.96%)p 3.01( 75.04%)
                                            0.0000 -0.4996 -0.5174  0.6243 -0.3048
                ( 51.50%)  -0.7177* H  18 s(100.00%)
                                           -1.0000
    60. (0.02235) BD*( 1) C   5 - C   9  
                ( 49.98%)   0.7070* C   5 s( 25.50%)p 2.92( 74.50%)
                                           -0.0001 -0.5050 -0.6340  0.1960  0.5519
                ( 50.02%)  -0.7073* C   9 s( 25.41%)p 2.94( 74.59%)
                                           -0.0001 -0.5040  0.6508 -0.1864 -0.5364
    61. (0.01233) BD*( 1) C   5 - H  19  
                ( 49.38%)   0.7027* C   5 s( 24.52%)p 3.08( 75.48%)
                                            0.0000 -0.4951 -0.3422 -0.3091 -0.7363
                ( 50.62%)  -0.7115* H  19 s(100.00%)
                                           -1.0000
    62. (0.00877) BD*( 1) C   6 - H  20  
                ( 48.52%)   0.6966* C   6 s( 24.88%)p 3.02( 75.12%)
                                            0.0000 -0.4988  0.4847  0.6638 -0.2749
                ( 51.48%)  -0.7175* H  20 s(100.00%)
                                           -1.0000
    63. (0.00952) BD*( 1) C   6 - H  21  
                ( 48.76%)   0.6983* C   6 s( 24.32%)p 3.11( 75.68%)
                                            0.0000 -0.4932 -0.5579  0.2865  0.6029
                ( 51.24%)  -0.7158* H  21 s(100.00%)
                                           -1.0000
    64. (0.00874) BD*( 1) C   7 - H  22  
                ( 48.10%)   0.6935* C   7 s( 25.00%)p 3.00( 75.00%)
                                            0.0000 -0.5000  0.5763 -0.6111  0.2106
                ( 51.90%)  -0.7204* H  22 s(100.00%)
                                           -1.0000
    65. (0.00760) BD*( 1) C   7 - H  23  
                ( 48.57%)   0.6969* C   7 s( 24.36%)p 3.11( 75.64%)
                                            0.0000 -0.4936 -0.5284  0.1387  0.6767
                ( 51.43%)  -0.7171* H  23 s(100.00%)
                                           -1.0000
    66. (0.00767) BD*( 1) O   8 - H  24  
                ( 40.64%)   0.6375* O   8 s( 16.70%)p 4.99( 83.30%)
                                            0.0000 -0.4087 -0.5558 -0.3191 -0.6498
                ( 59.36%)  -0.7704* H  24 s(100.00%)
                                           -1.0000
    67. (0.01017) BD*( 1) C   9 - C  10  
                ( 50.92%)   0.7136* C   9 s( 24.97%)p 3.01( 75.03%)
                                            0.0000  0.4997  0.5008 -0.6133  0.3512
                ( 49.08%)  -0.7006* C  10 s( 25.79%)p 2.88( 74.21%)
                                            0.0001  0.5078 -0.5174  0.6133 -0.3136
    68. (0.01020) BD*( 1) C   9 - C  11  
                ( 51.04%)   0.7144* C   9 s( 24.83%)p 3.03( 75.17%)
                                            0.0000  0.4983  0.4739  0.7122 -0.1408
                ( 48.96%)  -0.6997* C  11 s( 25.81%)p 2.87( 74.19%)
                                            0.0001  0.5081 -0.4905 -0.6877  0.1681
    69. (0.01230) BD*( 1) C   9 - H  25  
                ( 48.91%)   0.6994* C   9 s( 24.80%)p 3.03( 75.20%)
                                            0.0000 -0.4980  0.3180  0.2860  0.7544
                ( 51.09%)  -0.7148* H  25 s(100.00%)
                                           -1.0000
    70. (0.00577) BD*( 1) C  10 - H  26  
                ( 48.20%)   0.6942* C  10 s( 24.87%)p 3.02( 75.13%)
                                            0.0000 -0.4987 -0.2597 -0.2144 -0.7987
                ( 51.80%)  -0.7197* H  26 s(100.00%)
                                           -1.0000
    71. (0.00581) BD*( 1) C  10 - H  27  
                ( 48.11%)   0.6936* C  10 s( 24.69%)p 3.05( 75.31%)
                                            0.0000 -0.4968  0.4265  0.7552 -0.0312
                ( 51.89%)  -0.7204* H  27 s(100.00%)
                                           -1.0000
    72. (0.00527) BD*( 1) C  10 - H  28  
                ( 48.14%)   0.6938* C  10 s( 24.66%)p 3.06( 75.34%)
                                            0.0000 -0.4965 -0.6950  0.0870  0.5127
[...]
 Sum      215.9091      -20.7754     236.6845       -23.7741     239.6832

 Contributions to Isotropic shielding for atom    8 (   353.4992 ppm):
                         Standard Origin              Atomic Origin
 NLMO      Total    Paramagnetic  Diamagnetic   Paramagnetic  Diamagnetic
   10      25.1414        8.1747      16.9667        14.4974      10.6440
   11      -0.3109       -0.5797       0.2688        -1.6654       1.3545
   17      -0.6303       -0.8827       0.2524        -1.5621       0.9318
   20      -0.1380       -0.5629       0.4249        -1.0357       0.8976
   22      20.3770        9.4567      10.9203         5.9948      14.3822
   39     271.1727       -0.0058     271.1785        -0.0034     271.1761
   43      33.5737       -0.6861      34.2598        -3.8869      37.4605
   44       3.4394      -34.9687      38.4081       -36.5192      39.9585
 Sum      352.6249      -20.0546     372.6795       -24.1804     376.8053

 Contributions to Isotropic shielding for atom    9 (   215.1743 ppm):
                         Standard Origin              Atomic Origin
 NLMO      Total    Paramagnetic  Diamagnetic   Paramagnetic  Diamagnetic
   16       5.0257       -9.0159      14.0416        -2.7628       7.7885
   23      -1.6337       -4.7928       3.1591        -9.1681       7.5345
   24      -1.0860       -4.6255       3.5394        -8.5590       7.4730
   25       7.2466       -4.7188      11.9654        -3.7041      10.9507
   26       0.9617       -0.3838       1.3455        -0.1073       1.0690
   27       0.7553       -0.5658       1.3210        -0.2350       0.9903
   29       0.9360       -0.3752       1.3112        -0.1280       1.0640
   30       0.7222       -0.5859       1.3081        -0.2639       0.9862
   40     199.9198        0.0002     199.9196         0.0004     199.9194
 Sum      212.8477      -25.0633     237.9110       -24.9278     237.7755

 Contributions to Isotropic shielding for atom   10 (   221.4924 ppm):
                         Standard Origin              Atomic Origin
 NLMO      Total    Paramagnetic  Diamagnetic   Paramagnetic  Diamagnetic
   23       4.7449      -11.1204      15.8653        -3.2137       7.9586
   24      -0.5187        0.2384      -0.7571        -1.2412       0.7225
   25       0.3376       -0.1367       0.4743        -0.7020       1.0396
   26       5.7438       -2.4215       8.1653        -5.3913      11.1351
   27       6.2822       -4.7655      11.0477        -4.8445      11.1268
   28       4.7381        1.5273       3.2108        -6.3808      11.1189
   31      -0.2597       -0.8860       0.6262        -1.2272       0.9675
   41     200.0744       -0.0038     200.0782         0.0023     200.0721
 Sum      221.1426      -17.5680     238.7107       -22.9984     244.1410

 Contributions to Isotropic shielding for atom   11 (   221.5320 ppm):
                         Standard Origin              Atomic Origin
 NLMO      Total    Paramagnetic  Diamagnetic   Paramagnetic  Diamagnetic
   23      -0.5021        0.2150      -0.7171        -1.2376       0.7355
   24       4.5342      -11.0352      15.5695        -3.4848       8.0190
   25       0.3364       -0.1716       0.5080        -0.7054       1.0418
   28      -0.2599       -0.9479       0.6880        -1.2259       0.9660
   29       5.7112       -2.5003       8.2115        -5.4068      11.1180
   30       6.4219       -4.9691      11.3909        -4.6752      11.0971
   31       4.8092        1.5761       3.2331        -6.3235      11.1327
   42     200.0748       -0.0036     200.0783         0.0022     200.0726
 Sum      221.1256      -17.8366     238.9622       -23.0570     244.1827

 Contributions to Isotropic shielding for atom   12 (    32.5860 ppm):
                         Standard Origin              Atomic Origin
 NLMO      Total    Paramagnetic  Diamagnetic   Paramagnetic  Diamagnetic
    1       1.3461        0.1505       1.1955         0.3347       1.0113
    2      26.5091        0.0956      26.4135         0.4418      26.0673
    3       2.0422        1.0983       0.9438         0.1500       1.8921
    4       1.9157        2.3305      -0.4149         0.0682       1.8475
 Sum       31.8130        3.6750      28.1380         0.9948      30.8182

 Contributions to Isotropic shielding for atom   13 (    31.9133 ppm):
                         Standard Origin              Atomic Origin
 NLMO      Total    Paramagnetic  Diamagnetic   Paramagnetic  Diamagnetic
    1       1.5969       -1.2922       2.8890         0.7143       0.8826
    2       1.9135        1.3754       0.5381         0.0677       1.8458
    3      26.0304        0.3524      25.6780         0.4055      25.6249
    4       1.9213        1.1696       0.7518         0.0910       1.8304
   43      -0.7819        0.1035      -0.8854         0.5175      -1.2994
 Sum       30.6802        1.7087      28.9714         1.7959      28.8842

 Contributions to Isotropic shielding for atom   14 (    32.4410 ppm):
                         Standard Origin              Atomic Origin
 NLMO      Total    Paramagnetic  Diamagnetic   Paramagnetic  Diamagnetic
    1       1.4000       -0.0276       1.4276         0.4083       0.9918
    2       1.8840        2.3647      -0.4808         0.0612       1.8228
    3       2.0759        0.9385       1.1373         0.1955       1.8804
    4      26.3706        0.1353      26.2353         0.4310      25.9396
    6      -0.1438        0.3874      -0.5312        -1.0574       0.9136
   10       0.0747       -0.1640       0.2387        -0.9281       1.0029
 Sum       31.6614        3.6344      28.0270        -0.8895      32.5510

 Contributions to Isotropic shielding for atom   15 (    32.4013 ppm):
                         Standard Origin              Atomic Origin
 NLMO      Total    Paramagnetic  Diamagnetic   Paramagnetic  Diamagnetic
    1       0.7793        2.2686      -1.4893        -0.2928       1.0722
    2       0.2236       -0.5645       0.7880        -0.7767       1.0003
    5       1.3009        1.0045       0.2964         0.2950       1.0058
    6       1.3453        0.8901       0.4552         0.3224       1.0229
    7      26.5754       -0.2319      26.8073         0.4582      26.1171
   19       0.0983       -0.0696       0.1679        -0.9643       1.0626
   21       0.0668       -0.0333       0.1001        -1.0302       1.0969
 Sum       30.3895        3.2638      27.1256        -1.9884      32.3779

 Contributions to Isotropic shielding for atom   16 (    31.8751 ppm):
                         Standard Origin              Atomic Origin
 NLMO      Total    Paramagnetic  Diamagnetic   Paramagnetic  Diamagnetic
    9       0.8387        0.5337       0.3049        -0.3777       1.2164
   10       0.5134        1.3231      -0.8097        -1.1509       1.6643
   11      26.7867        0.2883      26.4984         0.7698      26.0168
   21       0.2087       -0.3045       0.5132        -0.8094       1.0182
   24       0.0225       -0.6754       0.6979        -1.0337       1.0562
   30      -0.4089       -1.5408       1.1318        -1.0228       0.6139
 Sum       27.9610       -0.3755      28.3365        -3.6247      31.5857

 Contributions to Isotropic shielding for atom   17 (    32.2516 ppm):
                         Standard Origin              Atomic Origin
 NLMO      Total    Paramagnetic  Diamagnetic   Paramagnetic  Diamagnetic
    3      -0.3251       -1.1451       0.8199        -0.8113       0.4861
   10       0.0641       -0.5049       0.5689        -1.1757       1.2398
   12       1.4023        0.2993       1.1030         0.4217       0.9805
   13       1.1128        0.8068       0.3059         0.1391       0.9737
   14      26.2858        0.0862      26.1996         0.4003      25.8855
   15       1.9771        1.5309       0.4462         0.1364       1.8407
 Sum       30.5169        1.0733      29.4437        -0.8894      31.4063

 Contributions to Isotropic shielding for atom   18 (    32.5271 ppm):
                         Standard Origin              Atomic Origin
 NLMO      Total    Paramagnetic  Diamagnetic   Paramagnetic  Diamagnetic
   12       1.3049        0.5624       0.7424         0.4037       0.9011
   13       1.1237        1.1148       0.0089         0.1074       1.0163
   14       2.0716        1.5150       0.5566         0.2351       1.8365
   15      26.4109        0.0088      26.4021         0.4260      25.9850
   23       0.0260       -0.6573       0.6833        -1.0217       1.0477
   27      -0.3762       -1.4689       1.0928        -1.0527       0.6765
 Sum       30.5610        1.0749      29.4861        -0.9021      31.4630

 Contributions to Isotropic shielding for atom   19 (    33.1754 ppm):
                         Standard Origin              Atomic Origin
 NLMO      Total    Paramagnetic  Diamagnetic   Paramagnetic  Diamagnetic
    8       1.2979        1.0354       0.2625         0.3829       0.9150
   10      -0.0851       -0.1548       0.0697        -1.3004       1.2153
   12       1.1860        1.0348       0.1511         0.0408       1.1452
   14       0.1814       -0.2921       0.4734        -0.8232       1.0046
   16       0.9905        1.3254      -0.3349        -0.0142       1.0047
   17      26.6909        0.0239      26.6669         0.4696      26.2212
   22      -0.0782       -1.1702       1.0920        -0.7886       0.7104
   26      -0.0698       -1.2628       1.1930        -0.9501       0.8803
   29      -0.0795       -1.2622       1.1827        -0.9621       0.8826
 Sum       30.0340       -0.7226      30.7566        -3.9453      33.9793

 Contributions to Isotropic shielding for atom   20 (    32.5494 ppm):
                         Standard Origin              Atomic Origin
 NLMO      Total    Paramagnetic  Diamagnetic   Paramagnetic  Diamagnetic
    1      -0.0975       -0.0776      -0.0199        -1.1456       1.0481
    2      -0.0823       -1.1963       1.1140        -0.9891       0.9067
    5       1.0849        1.2955      -0.2107         0.1615       0.9233
   13       1.1917        0.9314       0.2603         0.1699       1.0218
   18      26.4324       -0.0237      26.4561         0.4695      25.9628
   19       2.1075        1.4980       0.6096         0.3547       1.7529
 Sum       30.6367        2.4272      28.2094        -0.9790      31.6156

 Contributions to Isotropic shielding for atom   21 (    32.5811 ppm):
                         Standard Origin              Atomic Origin
 NLMO      Total    Paramagnetic  Diamagnetic   Paramagnetic  Diamagnetic
    5       1.2899        0.4906       0.7994         0.2868       1.0031
   13       1.3514        0.0538       1.2976         0.3853       0.9661
   16      -0.0144       -0.2392       0.2249        -1.0128       0.9984
   18       1.9570        1.7353       0.2218         0.1590       1.7980
   19      26.5245        0.1564      26.3680         0.3926      26.1319
 Sum       31.1084        2.1968      28.9116         0.2110      30.8974

 Contributions to Isotropic shielding for atom   22 (    32.1047 ppm):
                         Standard Origin              Atomic Origin
 NLMO      Total    Paramagnetic  Diamagnetic   Paramagnetic  Diamagnetic
    1      -0.1007       -0.1532       0.0525        -1.1312       1.0306
    4      -0.1163       -1.3713       1.2550        -1.0128       0.8965
    6       1.0521        1.3639      -0.3118         0.0195       1.0326
    9       1.1794        0.9375       0.2419         0.2234       0.9560
   10       0.0569       -0.0245       0.0814        -1.5737       1.6305
   20      26.1572        0.0264      26.1309         0.4582      25.6991
   21       2.1146        1.4014       0.7133         0.3780       1.7366
 Sum       30.3433        2.1801      28.1632        -2.6387      32.9820

 Contributions to Isotropic shielding for atom   23 (    32.5009 ppm):
                         Standard Origin              Atomic Origin
 NLMO      Total    Paramagnetic  Diamagnetic   Paramagnetic  Diamagnetic
    6       1.2483        0.5993       0.6489         0.1705       1.0778
    9       1.4553        0.2560       1.1992         0.5483       0.9070
   20       1.9705        1.6063       0.3642         0.1573       1.8131
   21      26.3918        0.1557      26.2361         0.3889      26.0029
 Sum       31.0658        2.6173      28.4484         1.2650      29.8008

 Contributions to Isotropic shielding for atom   24 (    35.1665 ppm):
                         Standard Origin              Atomic Origin
 NLMO      Total    Paramagnetic  Diamagnetic   Paramagnetic  Diamagnetic
    8      -0.0732        0.1124      -0.1856        -1.0466       0.9734
   10       1.7385        1.8850      -0.1466         1.0204       0.7180
   11       0.1866        0.2665      -0.0798        -0.8581       1.0447
   22      23.1015       -0.4099      23.5114        -0.1342      23.2357
   43       3.9636        1.0997       2.8639         2.0258       1.9378
   44       5.4999        2.4306       3.0692         2.3298       3.1701
 Sum       34.4168        5.3843      29.0325         3.3372      31.0797

 Contributions to Isotropic shielding for atom   25 (    32.6881 ppm):
                         Standard Origin              Atomic Origin
 NLMO      Total    Paramagnetic  Diamagnetic   Paramagnetic  Diamagnetic
   16       1.7053       -0.5031       2.2084         0.7616       0.9438
   23       0.9897        1.3090      -0.3192        -0.0191       1.0088
   24       1.0258        1.2528      -0.2270         0.0242       1.0016
   25      26.4096        0.1308      26.2789         0.3531      26.0565
   27       0.2053       -0.9323       1.1376        -0.7695       0.9748
   30       0.2017       -0.9077       1.1095        -0.7715       0.9733
 Sum       30.5375        0.3494      30.1881        -0.4213      30.9588

 Contributions to Isotropic shielding for atom   26 (    32.7045 ppm):
                         Standard Origin              Atomic Origin
 NLMO      Total    Paramagnetic  Diamagnetic   Paramagnetic  Diamagnetic
   23       1.4742       -0.5630       2.0372         0.5281       0.9461
   26      26.3478        0.2348      26.1130         0.4271      25.9207
   27       2.0609        0.9172       1.1437         0.2696       1.7913
   28       1.9016        2.2661      -0.3645         0.0885       1.8131
 Sum       31.7845        2.8551      28.9294         1.3132      30.4713

 Contributions to Isotropic shielding for atom   27 (    32.3545 ppm):
                         Standard Origin              Atomic Origin
 NLMO      Total    Paramagnetic  Diamagnetic   Paramagnetic  Diamagnetic
   12      -0.0939        0.1196      -0.2135        -1.0674       0.9735
   23       1.5369       -1.1494       2.6863         0.5264       1.0105
   26       2.0199        0.9981       1.0218         0.1883       1.8316
   27      26.3065        0.2637      26.0427         0.3935      25.9130
   28       1.8452        1.7490       0.0961        -0.0553       1.9004
 Sum       31.6146        1.9811      29.6335        -0.0144      31.6290

 Contributions to Isotropic shielding for atom   28 (    32.5721 ppm):
                         Standard Origin              Atomic Origin
 NLMO      Total    Paramagnetic  Diamagnetic   Paramagnetic  Diamagnetic
   23       1.3179        0.1734       1.1445         0.3380       0.9799
   24      -0.2267        0.7361      -0.9628        -1.3046       1.0779
   26       1.9168        2.0147      -0.0979         0.0631       1.8537
   27       1.9979        1.5592       0.4387         0.1121       1.8858
   28      26.3456        0.0229      26.3227         0.4516      25.8939
   31      -0.1545       -1.0067       0.8522        -1.0178       0.8633
 Sum       31.1970        3.4996      27.6974        -1.3576      32.5545

 Contributions to Isotropic shielding for atom   29 (    32.7912 ppm):
                         Standard Origin              Atomic Origin
 NLMO      Total    Paramagnetic  Diamagnetic   Paramagnetic  Diamagnetic
   24       1.4656       -0.5027       1.9683         0.5108       0.9548
   29      26.3693        0.2337      26.1356         0.4283      25.9410
   30       2.0665        0.8481       1.2183         0.2745       1.7920
   31       1.9080        2.2614      -0.3534         0.0944       1.8135
 Sum       31.8093        2.8406      28.9688         1.3080      30.5013

 Contributions to Isotropic shielding for atom   30 (    32.5144 ppm):
                         Standard Origin              Atomic Origin
 NLMO      Total    Paramagnetic  Diamagnetic   Paramagnetic  Diamagnetic
    8      -0.0761        0.1215      -0.1976        -1.0426       0.9664
   24       1.5363       -1.1478       2.6841         0.5206       1.0157
   29       2.0212        0.9381       1.0831         0.1908       1.8304
   30      26.3447        0.2715      26.0731         0.3865      25.9582
   31       1.8571        1.7024       0.1547        -0.0464       1.9034
 Sum       31.6831        1.8857      29.7974         0.0089      31.6742

 Contributions to Isotropic shielding for atom   31 (    32.5752 ppm):
                         Standard Origin              Atomic Origin
 NLMO      Total    Paramagnetic  Diamagnetic   Paramagnetic  Diamagnetic
   23      -0.2144        0.7034      -0.9177        -1.2966       1.0823
   24       1.2916        0.2396       1.0520         0.2982       0.9934
   28      -0.1548       -1.0739       0.9191        -1.0194       0.8646
   29       1.9159        2.0030      -0.0871         0.0656       1.8504
   30       2.0052        1.4992       0.5061         0.1224       1.8828
   31      26.3288        0.0188      26.3101         0.4566      25.8723
 Sum       31.1724        3.3900      27.7824        -1.3733      32.5457
 
 1\1\GINC-COMPUTE-10-7\SP\RHF\STO-3G\C10H20O1\YTSAI.IQUIR\24-May-2020\0
 \\# rhf/STO-3G nmr pop=nbo\\comment\\0,1\C,0,3.130816151,0.56452929,-0
 .588435662\C,0,1.74366735,0.372883395,-1.209952801\C,0,0.555762572,-1.
 206681024,0.458390931\C,0,0.229435571,1.276851861,0.638048689\C,0,-0.4
 60498198,-0.094815181,0.81121163\C,0,0.777115135,1.482910618,-0.773871
 945\C,0,1.165629291,-1.028370199,-0.936919391\O,0,1.609899676,-1.21958
 6878,1.422731704\C,0,-1.801367342,-0.216951772,0.017755556\C,0,-2.7857
 99206,0.908379215,0.364974011\C,0,-2.499134371,-1.560314647,0.27405040
 5\H,0,3.565963938,1.514943191,-0.916760708\H,0,3.105834562,0.577998378
 ,0.503987898\H,0,3.810856295,-0.234128884,-0.902941641\H,0,1.883577538
 ,0.461742412,-2.295823734\H,0,0.095934511,-2.196720248,0.517922462\H,0
 ,1.05216847,1.359467558,1.35930491\H,0,-0.450937315,2.09571154,0.89178
 7022\H,0,-0.701974371,-0.18470991,1.879961048\H,0,1.273438349,2.459156
 856,-0.832812605\H,0,-0.058378911,1.526367108,-1.482868\H,0,1.95094319
 ,-1.778438189,-1.093411902\H,0,0.389590049,-1.230328147,-1.685683007\H
 ,0,1.207400007,-1.368705756,2.295182159\H,0,-1.602180252,-0.154788082,
 -1.058335043\H,0,-2.951490617,0.970773334,1.445678178\H,0,-2.425933288
 ,1.879249881,0.012384666\H,0,-3.756254957,0.742282125,-0.115848019\H,0
 ,-2.636288522,-1.737538797,1.345995914\H,0,-1.931395836,-2.395655518,-
 0.14510928\H,0,-3.486399473,-1.585513526,-0.200593439\\Version=EM64L-G
 09RevC.01\State=1-A\HF=-459.6162487\RMSD=7.507e-09\Dipole=-0.5415884,-
 0.0250642,0.0796668\Quadrupole=-2.5792706,0.2215593,2.3577112,1.026397
 7,-0.8859275,-0.3830812\PG=C01 [X(C10H20O1)]\\@


 THEREFORE SHALL EVIL COME UPON THEE...
 THOU SHALT NOT KNOW FROM WHENCE IT RISETH...
 AND MISCHIEF SHALL FALL UPON THEE...
 THOU SHALT NOT BE ABLE TO PUT IT OFF...
 AND DESOLATION SHALL COME UPON THEE SUDDENLY...
 WHICH THOU SHALT NOT KNOW...

                                         ISAIAH 47.11
 Job cpu time:  0 days  0 hours  0 minutes 38.9 seconds.
 File lengths (MBytes):  RWF=      5 Int=      0 D2E=      0 Chk=      1 Scr=      1
 Normal termination of Gaussian 09 at Sun May 24 02:05:38 2020.
