 Entering Gaussian System, Link 0=g09
 Input=/home/ytsai.iquir/menthol/01_menthol_M0095_MMFF_NMR_rhf_STO-3G_nbo.gjc
 Output=/home/ytsai.iquir/menthol/01_menthol_M0095_MMFF_NMR_rhf_STO-3G_nbo.log
 Initial command:
 /share/apps/Gaussian09/EM64T.SSE4.2-enabled/g09/l1.exe /tmp/Gau-29681.inp -scrdir=/tmp/
 Entering Link 1 = /share/apps/Gaussian09/EM64T.SSE4.2-enabled/g09/l1.exe PID=     29682.
  
 Copyright (c) 1988,1990,1992,1993,1995,1998,2003,2009,2011,
            Gaussian, Inc.  All Rights Reserved.
  
 This is part of the Gaussian(R) 09 program.  It is based on
 the Gaussian(R) 03 system (copyright 2003, Gaussian, Inc.),
 the Gaussian(R) 98 system (copyright 1998, Gaussian, Inc.),
 the Gaussian(R) 94 system (copyright 1995, Gaussian, Inc.),
 the Gaussian 92(TM) system (copyright 1992, Gaussian, Inc.),
 the Gaussian 90(TM) system (copyright 1990, Gaussian, Inc.),
 the Gaussian 88(TM) system (copyright 1988, Gaussian, Inc.),
 the Gaussian 86(TM) system (copyright 1986, Carnegie Mellon
 University), and the Gaussian 82(TM) system (copyright 1983,
 Carnegie Mellon University). Gaussian is a federally registered
 trademark of Gaussian, Inc.
  
 This software contains proprietary and confidential information,
 including trade secrets, belonging to Gaussian, Inc.
  
 This software is provided under written license and may be
 used, copied, transmitted, or stored only in accord with that
 written license.
  
 The following legend is applicable only to US Government
 contracts under FAR:
  
                    RESTRICTED RIGHTS LEGEND
  
 Use, reproduction and disclosure by the US Government is
 subject to restrictions as set forth in subparagraphs (a)
 and (c) of the Commercial Computer Software - Restricted
 Rights clause in FAR 52.227-19.
  
 Gaussian, Inc.
 340 Quinnipiac St., Bldg. 40, Wallingford CT 06492
  
  
 ---------------------------------------------------------------
 Warning -- This program may not be used in any manner that
 competes with the business of Gaussian, Inc. or will provide
 assistance to any competitor of Gaussian, Inc.  The licensee
 of this program is prohibited from giving any competitor of
 Gaussian, Inc. access to this program.  By using this program,
 the user acknowledges that Gaussian, Inc. is engaged in the
 business of creating and licensing software in the field of
 computational chemistry and represents and warrants to the
 licensee that it is not a competitor of Gaussian, Inc. and that
 it will not use this program in any manner prohibited above.
 ---------------------------------------------------------------
  

 Cite this work as:
 Gaussian 09, Revision C.01,
 M. J. Frisch, G. W. Trucks, H. B. Schlegel, G. E. Scuseria, 
 M. A. Robb, J. R. Cheeseman, G. Scalmani, V. Barone, B. Mennucci, 
 G. A. Petersson, H. Nakatsuji, M. Caricato, X. Li, H. P. Hratchian, 
 A. F. Izmaylov, J. Bloino, G. Zheng, J. L. Sonnenberg, M. Hada, 
 M. Ehara, K. Toyota, R. Fukuda, J. Hasegawa, M. Ishida, T. Nakajima, 
 Y. Honda, O. Kitao, H. Nakai, T. Vreven, J. A. Montgomery, Jr., 
 J. E. Peralta, F. Ogliaro, M. Bearpark, J. J. Heyd, E. Brothers, 
 K. N. Kudin, V. N. Staroverov, T. Keith, R. Kobayashi, J. Normand, 
 K. Raghavachari, A. Rendell, J. C. Burant, S. S. Iyengar, J. Tomasi, 
 M. Cossi, N. Rega, J. M. Millam, M. Klene, J. E. Knox, J. B. Cross, 
 V. Bakken, C. Adamo, J. Jaramillo, R. Gomperts, R. E. Stratmann, 
 O. Yazyev, A. J. Austin, R. Cammi, C. Pomelli, J. W. Ochterski, 
 R. L. Martin, K. Morokuma, V. G. Zakrzewski, G. A. Voth, 
 P. Salvador, J. J. Dannenberg, S. Dapprich, A. D. Daniels, 
 O. Farkas, J. B. Foresman, J. V. Ortiz, J. Cioslowski, 
 and D. J. Fox, Gaussian, Inc., Wallingford CT, 2010.
 
 ******************************************
 Gaussian 09:  EM64L-G09RevC.01 23-Sep-2011
                 3-Aug-2021 
 ******************************************
 %nprocshared=4
 Will use up to    4 processors via shared memory.
 ------------------------
 # rhf/STO-3G nmr pop=nbo
 ------------------------
 1/38=1/1;
 2/12=2,17=6,18=5,40=1/2;
 3/6=3,11=1,16=1,25=1,30=1,116=1/1,2,8,3;
 4//1;
 5/5=2,38=5/2;
 8/6=1,10=90,11=11/1;
 10/13=100,45=16/2;
 6/7=2,8=2,9=2,10=2,28=1,64=1/1,7;
 99/9=1/99;
 -------
 comment
 -------
 Charge =  0 Multiplicity = 1
 Symbolic Z-Matrix:
 6                     2.55498   0.08698  -1.65218 
 6                     1.0882    0.0549   -2.09127 
 6                     0.05778  -1.37219  -0.19617 
 6                    -0.65887   1.02705  -0.45256 
 6                    -0.11108  -0.01663   0.52705 
 6                     0.32377   1.29668  -1.59718 
 6                     0.39123  -1.2523   -1.6902 
 8                     1.0604   -2.14388   0.46624 
 6                    -0.94471  -0.16347   1.83415 
 6                    -2.44311  -0.37949   1.59926 
 6                    -0.74753   1.04439   2.75866 
 1                     3.08227  -0.81152  -1.98954 
 1                     3.0643    0.95225  -2.0908 
 1                     2.66433   0.15903  -0.56717 
 1                     1.10407   0.09251  -3.1892 
 1                    -0.85862  -1.9657   -0.11996 
 1                    -0.87311   1.97499   0.05216 
 1                    -1.60857   0.67823  -0.87757 
 1                     0.88541   0.31709   0.84808 
 1                     1.03054   2.07749  -1.28918 
 1                    -0.24304   1.7258   -2.43345 
 1                     0.98506  -2.11275  -2.02196 
 1                    -0.55433  -1.29531  -2.2482 
 1                     1.90716  -1.67499   0.38619 
 1                    -0.56551  -1.03986   2.3766 
 1                    -2.91145   0.49677   1.13939 
 1                    -2.63431  -1.24415   0.95818 
 1                    -2.95473  -0.56146   2.55106 
 1                    -1.15518   1.9623    2.32418 
 1                     0.31496   1.20748   2.9674 
 1                    -1.25032   0.87975   3.71801 
 
                          Input orientation:                          
 ---------------------------------------------------------------------
 Center     Atomic      Atomic             Coordinates (Angstroms)
 Number     Number       Type             X           Y           Z
 ---------------------------------------------------------------------
      1          6           0        2.554984    0.086977   -1.652183
      2          6           0        1.088200    0.054904   -2.091275
      3          6           0        0.057779   -1.372191   -0.196175
      4          6           0       -0.658870    1.027051   -0.452561
      5          6           0       -0.111084   -0.016627    0.527052
      6          6           0        0.323772    1.296681   -1.597182
      7          6           0        0.391231   -1.252302   -1.690203
      8          8           0        1.060401   -2.143885    0.466236
      9          6           0       -0.944706   -0.163469    1.834150
     10          6           0       -2.443114   -0.379486    1.599263
     11          6           0       -0.747535    1.044388    2.758660
     12          1           0        3.082270   -0.811515   -1.989537
     13          1           0        3.064300    0.952250   -2.090803
     14          1           0        2.664333    0.159034   -0.567168
     15          1           0        1.104071    0.092508   -3.189196
     16          1           0       -0.858623   -1.965704   -0.119963
     17          1           0       -0.873106    1.974994    0.052158
     18          1           0       -1.608567    0.678229   -0.877567
     19          1           0        0.885414    0.317086    0.848081
     20          1           0        1.030543    2.077495   -1.289182
     21          1           0       -0.243042    1.725802   -2.433454
     22          1           0        0.985063   -2.112753   -2.021961
     23          1           0       -0.554331   -1.295305   -2.248196
     24          1           0        1.907161   -1.674991    0.386186
     25          1           0       -0.565512   -1.039860    2.376597
     26          1           0       -2.911448    0.496772    1.139395
     27          1           0       -2.634309   -1.244153    0.958177
     28          1           0       -2.954729   -0.561461    2.551060
     29          1           0       -1.155184    1.962302    2.324183
     30          1           0        0.314958    1.207478    2.967397
     31          1           0       -1.250320    0.879753    3.718012
 ---------------------------------------------------------------------
                    Distance matrix (angstroms):
                    1          2          3          4          5
     1  C    0.000000
     2  C    1.531432   0.000000
     3  C    3.238080   2.586459   0.000000
     4  C    3.556922   2.585093   2.517078   0.000000
     5  C    3.444955   2.880804   1.545679   1.532637   0.000000
     6  C    2.538645   1.539639   3.025963   1.532463   2.535004
     7  C    2.544983   1.534735   1.535475   2.798199   2.587553
     8  O    3.420266   3.372878   1.428127   3.722219   2.429259
     9  C    4.946218   4.425986   2.566750   2.593856   1.557239
    10  C    5.980842   5.126299   3.234737   3.061348   2.592232
    11  C    5.592746   5.279286   3.901209   3.212492   2.551646
    12  H    1.095046   2.176545   3.560624   4.442831   4.142773
    13  H    1.095668   2.170299   4.246388   4.068345   4.227877
    14  H    1.092890   2.194980   3.045719   3.436607   2.988496
    15  H    2.113667   1.098680   3.492599   3.386813   3.911395
    16  H    4.267776   3.429147   1.094468   3.017798   2.185485
    17  H    4.268628   3.482495   3.483083   1.095096   2.184664
    18  H    4.276069   3.022280   2.728594   1.097374   2.167541
    19  H    3.015250   2.957984   2.151535   2.140218   1.098832
    20  H    2.533348   2.176591   3.747168   2.158121   2.997893
    21  H    3.335428   2.163606   3.833206   2.141285   3.437741
    22  H    2.727673   2.171217   2.177564   3.876068   3.477463
    23  H    3.454529   2.132041   2.142751   2.937443   3.087634
    24  H    2.771129   3.130662   1.962408   3.819561   2.615975
    25  H    5.219035   4.888267   2.667975   3.504993   2.162019
    26  H    6.151643   5.160393   3.754075   2.808847   2.912144
    27  H    5.959417   4.984354   2.931938   3.324291   2.838900
    28  H    6.960220   6.186797   4.156897   4.100741   3.532672
    29  H    5.752711   5.307279   4.352279   2.971756   2.869841
    30  H    5.254880   5.245616   4.090113   3.560479   2.763192
    31  H    6.629316   6.316396   4.701407   4.214877   3.504794
                    6          7          8          9         10
     6  C    0.000000
     7  C    2.551572   0.000000
     8  O    4.078947   2.427537   0.000000
     9  C    3.938922   3.923181   3.132681   0.000000
    10  C    4.547796   4.428985   4.083071   1.532012   0.000000
    11  C    4.492739   5.134584   4.323068   1.533790   2.499321
    12  H    3.493959   2.743279   3.448765   5.590803   6.602726
    13  H    2.805849   3.487954   4.487773   5.720333   6.761783
    14  H    2.798820   2.901735   2.990645   4.346895   5.573996
    15  H    2.143225   2.136267   4.285504   5.431116   5.977846
    16  H    3.771391   2.129961   2.014455   2.659703   2.825321
    17  H    2.147777   3.879408   4.568924   2.784537   3.225218
    18  H    2.152733   2.895949   4.110172   2.915918   2.819559
    19  H    2.693391   3.024909   2.496558   2.133683   3.482611
    20  H    1.097296   3.414247   4.571917   4.321890   5.142583
    21  H    1.097622   3.134298   5.008157   4.719546   5.053252
    22  H    3.498855   1.096849   2.489532   4.732157   5.279193
    23  H    2.813055   1.098769   3.270410   4.254291   4.382826
    24  H    3.907903   2.605398   0.971223   3.537576   4.698380
    25  H    4.694802   4.183222   2.740792   1.098225   2.136756
    26  H    4.312232   4.687597   4.816824   2.187848   1.094826
    27  H    4.662182   4.020930   3.834371   2.188600   1.093251
    28  H    5.604388   5.446193   4.792893   2.170841   1.095803
    29  H    4.243520   5.370323   5.022107   2.191652   2.769159
    30  H    4.565459   5.267786   4.247720   2.179563   3.463698
    31  H    5.559035   6.040624   5.005583   2.175005   2.738162
                   11         12         13         14         15
    11  C    0.000000
    12  H    6.376296   0.000000
    13  H    6.168943   1.766762   0.000000
    14  H    4.846217   1.771939   1.763697   0.000000
    15  H    6.301707   2.483891   2.405852   3.051864   0.000000
    16  H    4.166469   4.511995   5.271432   4.138324   4.184328
    17  H    2.864777   5.251490   4.597983   4.024270   4.237849
    18  H    3.754676   5.045767   4.835568   4.315505   3.611801
    19  H    2.616449   3.761913   3.713222   2.278697   4.049426
    20  H    4.540253   3.611988   2.458645   2.621272   2.748751
    21  H    5.260883   4.206274   3.413840   3.793496   2.248001
    22  H    5.985297   2.468308   3.704350   3.177638   2.497955
    23  H    5.529927   3.677747   4.262718   3.911617   2.358348
    24  H    4.480074   2.787567   3.791680   2.201327   4.068460
    25  H    2.126780   5.693995   6.091117   4.531556   5.920120
    26  H    2.757612   6.886688   6.808171   5.840869   5.918152
    27  H    3.469737   6.446353   6.826025   5.689571   5.741329
    28  H    2.737436   7.558102   7.750285   6.466553   7.060600
    29  H    1.094310   6.652688   6.190020   5.118632   6.244815
    30  H    1.095016   6.025408   5.762761   4.371722   6.306307
    31  H    1.095561   7.362597   7.236265   5.848650   7.339785
                   16         17         18         19         20
    16  H    0.000000
    17  H    3.944482   0.000000
    18  H    2.850747   1.756955   0.000000
    19  H    3.031485   2.544513   3.054214   0.000000
    20  H    4.613402   2.331004   3.015340   2.772724   0.000000
    21  H    4.399817   2.576305   2.320097   3.745179   1.747874
    22  H    2.652999   4.946154   3.978208   3.761807   4.254082
    23  H    2.251977   4.010998   2.623905   3.776188   3.848027
    24  H    2.826706   4.600418   4.415321   2.285975   4.201960
    25  H    2.678789   3.819290   3.824837   2.506562   5.069836
    26  H    3.444395   2.742637   2.408020   3.812258   4.892439
    27  H    2.199109   3.779631   2.849150   3.852018   5.432781
    28  H    3.674224   4.124472   3.886447   4.291699   6.131390
    29  H    4.635842   2.289503   3.479311   3.008265   4.224581
    30  H    4.580193   3.240246   4.331720   2.368485   4.403120
    31  H    4.793757   3.844519   4.613924   3.621389   5.631067
                   21         22         23         24         25
    21  H    0.000000
    22  H    4.051182   0.000000
    23  H    3.042747   1.757594   0.000000
    24  H    4.913159   2.615545   3.625337   0.000000
    25  H    5.557829   4.785676   4.631855   3.237165   0.000000
    26  H    4.625597   5.655669   4.499257   5.338808   3.065179
    27  H    5.103131   4.768181   3.822271   4.597581   2.516659
    28  H    6.118023   6.232255   5.416022   5.437334   2.442879
    29  H    4.850056   6.330538   5.646209   5.134558   3.059974
    30  H    5.454284   6.030479   5.849957   4.184064   2.484915
    31  H    6.290544   6.848308   6.388342   5.253329   2.439933
                   26         27         28         29         30
    26  H    0.000000
    27  H    1.772136   0.000000
    28  H    1.764803   1.762389   0.000000
    29  H    2.576036   3.786178   3.107928   0.000000
    30  H    3.775763   4.329623   3.740766   1.773359   0.000000
    31  H    3.091162   3.747411   2.518706   1.767406   1.766613
                   31
    31  H    0.000000
 Stoichiometry    C10H20O
 Framework group  C1[X(C10H20O)]
 Deg. of freedom    87
 Full point group                 C1      NOp   1
 Largest Abelian subgroup         C1      NOp   1
 Largest concise Abelian subgroup C1      NOp   1
                         Standard orientation:                         
 ---------------------------------------------------------------------
 Center     Atomic      Atomic             Coordinates (Angstroms)
 Number     Number       Type             X           Y           Z
 ---------------------------------------------------------------------
      1          6           0       -2.784011   -0.161649    1.093024
      2          6           0       -2.251396   -0.497088   -0.303072
      3          6           0       -0.241350    1.124421   -0.445176
      4          6           0        0.181059   -1.356870   -0.466301
      5          6           0        0.544302   -0.032221    0.213651
      6          6           0       -1.298007   -1.705527   -0.268208
      7          6           0       -1.618770    0.720583   -0.990439
      8          8           0       -0.382011    2.196734    0.487512
      9          6           0        2.072511    0.263843    0.257430
     10          6           0        2.771428    0.146219   -1.100783
     11          6           0        2.785463   -0.638865    1.271989
     12          1           0       -3.442283    0.712793    1.059030
     13          1           0       -3.369135   -0.999504    1.488138
     14          1           0       -1.982613    0.042717    1.807450
     15          1           0       -3.129620   -0.786767   -0.896290
     16          1           0        0.323324    1.544770   -1.283216
     17          1           0        0.787582   -2.183220   -0.080929
     18          1           0        0.387649   -1.293461   -1.542187
     19          1           0        0.225736   -0.097087    1.263289
     20          1           0       -1.416162   -2.252715    0.675553
     21          1           0       -1.585708   -2.412840   -1.056694
     22          1           0       -2.309620    1.571935   -0.958765
     23          1           0       -1.495512    0.461424   -2.051069
     24          1           0       -0.917852    1.882061    1.233922
     25          1           0        2.203787    1.296184    0.608338
     26          1           0        2.759417   -0.882706   -1.474697
     27          1           0        2.307672    0.788298   -1.854350
     28          1           0        3.820670    0.450658   -1.015988
     29          1           0        2.760417   -1.690762    0.971322
     30          1           0        2.324169   -0.555079    2.261559
     31          1           0        3.836786   -0.347645    1.372805
 ---------------------------------------------------------------------
 Rotational constants (GHZ):      1.6392987      0.7546724      0.6642844
 Standard basis: STO-3G (5D, 7F)
 There are    75 symmetry adapted basis functions of A   symmetry.
 Integral buffers will be    131072 words long.
 Raffenetti 1 integral format.
 Two-electron integral symmetry is turned on.
    75 basis functions,   225 primitive gaussians,    75 cartesian basis functions
    44 alpha electrons       44 beta electrons
       nuclear repulsion energy       698.3724899567 Hartrees.
 NAtoms=   31 NActive=   31 NUniq=   31 SFac= 1.00D+00 NAtFMM=   60 NAOKFM=F Big=F
 One-electron integrals computed using PRISM.
 NBasis=    75 RedAO= T  NBF=    75
 NBsUse=    75 1.00D-06 NBFU=    75
 Harris functional with IExCor=  205 diagonalized for initial guess.
 ExpMin= 1.69D-01 ExpMax= 1.31D+02 ExpMxC= 1.31D+02 IAcc=1 IRadAn=         1 AccDes= 0.00D+00
 HarFok:  IExCor=  205 AccDes= 0.00D+00 IRadAn=         1 IDoV= 1
 ScaDFX=  1.000000  1.000000  1.000000  1.000000
 FoFCou: FMM=F IPFlag=           0 FMFlag=      100000 FMFlg1=           0
         NFxFlg=           0 DoJE=T BraDBF=F KetDBF=T FulRan=T
         Omega=  0.000000  0.000000  1.000000  0.000000  0.000000 ICntrl=     500 IOpCl=  0
         NMat0=    1 NMatS0=    1 NMatT0=    0 NMatD0=    1 NMtDS0=    0 NMtDT0=    0
         I1Cent=           4 NGrid=           0.
 Petite list used in FoFCou.
 Initial guess orbital symmetries:
       Occupied  (A) (A) (A) (A) (A) (A) (A) (A) (A) (A) (A) (A)
                 (A) (A) (A) (A) (A) (A) (A) (A) (A) (A) (A) (A)
                 (A) (A) (A) (A) (A) (A) (A) (A) (A) (A) (A) (A)
                 (A) (A) (A) (A) (A) (A) (A) (A)
       Virtual   (A) (A) (A) (A) (A) (A) (A) (A) (A) (A) (A) (A)
                 (A) (A) (A) (A) (A) (A) (A) (A) (A) (A) (A) (A)
                 (A) (A) (A) (A) (A) (A) (A)
 The electronic state of the initial guess is 1-A.
 Requested convergence on RMS density matrix=1.00D-08 within 128 cycles.
 Requested convergence on MAX density matrix=1.00D-06.
 Requested convergence on             energy=1.00D-06.
 No special actions if energy rises.
 Keep R1 ints in memory in canonical form, NReq=4898789.
 SCF Done:  E(RHF) =  -459.609897753     A.U. after   10 cycles
             Convg  =    0.9543D-08             -V/T =  2.0089
 Range of M.O.s used for correlation:     1    75
 NBasis=    75 NAE=    44 NBE=    44 NFC=     0 NFV=     0
 NROrb=     75 NOA=    44 NOB=    44 NVA=    31 NVB=    31
          Differentiating once with respect to magnetic field using GIAOs.
          Electric field/nuclear overlap derivatives assumed to be zero.
          Keep R3 ints in memory in canonical form, NReq=4863575.
 FoFCou: FMM=F IPFlag=           0 FMFlag=           0 FMFlg1=           0
         NFxFlg=           0 DoJE=F BraDBF=F KetDBF=T FulRan=T
         Omega=  0.000000  0.000000  1.000000  0.000000  0.000000 ICntrl=    6100 IOpCl=  0
         NMat0=    1 NMatS0=    1 NMatT0=    0 NMatD0=    1 NMtDS0=    0 NMtDT0=    0
         I1Cent=           7 NGrid=          31.
 Symmetry not used in FoFCou.
          There are     3 degrees of freedom in the 1st order CPHF.  IDoFFX=0.
      3 vectors produced by pass  0 Test12= 4.55D-14 3.33D-08 XBig12= 6.63D+00 4.37D-01.
 AX will form     3 AO Fock derivatives at one time.
      3 vectors produced by pass  1 Test12= 4.55D-14 3.33D-08 XBig12= 9.37D-03 1.43D-02.
      3 vectors produced by pass  2 Test12= 4.55D-14 3.33D-08 XBig12= 6.90D-05 1.96D-03.
      3 vectors produced by pass  3 Test12= 4.55D-14 3.33D-08 XBig12= 1.92D-06 4.13D-04.
      3 vectors produced by pass  4 Test12= 4.55D-14 3.33D-08 XBig12= 2.10D-08 3.07D-05.
      3 vectors produced by pass  5 Test12= 4.55D-14 3.33D-08 XBig12= 3.42D-10 2.73D-06.
      3 vectors produced by pass  6 Test12= 4.55D-14 3.33D-08 XBig12= 4.60D-12 4.60D-07.
      1 vectors produced by pass  7 Test12= 4.55D-14 3.33D-08 XBig12= 5.75D-14 4.06D-08.
 Inverted reduced A of dimension    22 with in-core refinement.
 Calculating GIAO nuclear magnetic shielding tensors.
 SCF GIAO Magnetic shielding tensor (ppm):
      1  C    Isotropic =   220.1781   Anisotropy =    26.5533
   XX=   216.0430   YX=    -5.6415   ZX=   -10.2504
   XY=    -6.2050   YY=   215.4751   ZY=     2.4528
   XZ=   -14.4280   YZ=     3.3986   ZZ=   229.0163
   Eigenvalues:   206.9066   215.7475   237.8803
      2  C    Isotropic =   217.3614   Anisotropy =     4.0747
   XX=   217.6490   YX=    -2.1046   ZX=    -3.5246
   XY=    -1.0196   YY=   218.7158   ZY=    -2.1324
   XZ=    -2.8690   YZ=    -1.5149   ZZ=   215.7196
   Eigenvalues:   212.4314   219.5750   220.0779
      3  C    Isotropic =   189.1996   Anisotropy =    36.0152
   XX=   182.1075   YX=    -5.2448   ZX=     2.0480
   XY=    -6.9146   YY=   197.8948   ZY=    20.3959
   XZ=    -0.8608   YZ=    17.8712   ZZ=   187.5964
   Eigenvalues:   171.2548   183.1342   213.2098
      4  C    Isotropic =   220.9198   Anisotropy =    11.8768
   XX=   227.1738   YX=     3.0089   ZX=    -0.2527
   XY=     3.3955   YY=   221.1845   ZY=     6.3185
   XZ=     0.4379   YZ=     2.6006   ZZ=   214.4010
   Eigenvalues:   212.0650   221.8567   228.8377
      5  C    Isotropic =   208.7912   Anisotropy =    15.6506
   XX=   216.9335   YX=    -9.0790   ZX=    -2.5173
   XY=    -2.1332   YY=   204.7648   ZY=     0.4407
   XZ=    -1.0480   YZ=    -2.9042   ZZ=   204.6752
   Eigenvalues:   201.5245   205.6242   219.2249
      6  C    Isotropic =   217.3099   Anisotropy =    16.6438
   XX=   222.9598   YX=    -6.0033   ZX=    -4.4217
   XY=    -6.1845   YY=   221.0950   ZY=    -3.1433
   XZ=    -4.2631   YZ=    -0.7803   ZZ=   207.8748
   Eigenvalues:   205.8343   217.6895   228.4058
      7  C    Isotropic =   215.6883   Anisotropy =    12.0838
   XX=   222.8532   YX=     1.2584   ZX=     1.4318
   XY=     2.9255   YY=   218.0717   ZY=    -1.4889
   XZ=     3.0475   YZ=    -2.9928   ZZ=   206.1399
   Eigenvalues:   205.3488   217.9718   223.7442
      8  O    Isotropic =   344.8680   Anisotropy =    64.5950
   XX=   338.8571   YX=     7.8956   ZX=   -28.7460
   XY=    20.1852   YY=   337.8358   ZY=   -37.0593
   XZ=   -20.3029   YZ=    -6.1284   ZZ=   357.9112
   Eigenvalues:   321.9621   324.7106   387.9314
      9  C    Isotropic =   213.8021   Anisotropy =    15.9536
   XX=   224.0622   YX=     1.6015   ZX=     3.3167
   XY=     0.7326   YY=   206.0800   ZY=    -3.5190
   XZ=     0.9888   YZ=    -2.8579   ZZ=   211.2639
   Eigenvalues:   204.3616   212.6068   224.4378
     10  C    Isotropic =   224.1304   Anisotropy =    20.8478
   XX=   223.2078   YX=     1.3820   ZX=    -9.4930
   XY=    -0.1435   YY=   215.6500   ZY=     0.8271
   XZ=    -6.8182   YZ=    -0.9741   ZZ=   233.5335
   Eigenvalues:   215.5626   218.7997   238.0290
     11  C    Isotropic =   221.0953   Anisotropy =    27.0846
   XX=   221.3660   YX=    -5.6361   ZX=     8.5135
   XY=    -8.4755   YY=   214.3789   ZY=   -12.7174
   XZ=     5.4865   YZ=    -9.6278   ZZ=   227.5409
   Eigenvalues:   207.3288   216.8054   239.1516
     12  H    Isotropic =    32.7252   Anisotropy =    13.7877
   XX=    35.2475   YX=    -6.3829   ZX=    -3.2861
   XY=    -6.3226   YY=    33.7883   ZY=     1.1867
   XZ=    -3.7731   YZ=     1.6113   ZZ=    29.1399
   Eigenvalues:    26.8728    29.3859    41.9171
     13  H    Isotropic =    32.4646   Anisotropy =    14.1776
   XX=    33.5350   YX=     4.3753   ZX=    -5.6986
   XY=     4.6604   YY=    32.1568   ZY=    -3.3015
   XZ=    -5.9242   YZ=    -3.8943   ZZ=    31.7020
   Eigenvalues:    26.7199    28.7576    41.9163
     14  H    Isotropic =    33.1758   Anisotropy =     7.4732
   XX=    34.4163   YX=     1.4070   ZX=     1.1382
   XY=     1.2658   YY=    27.9242   ZY=     2.0458
   XZ=     1.2491   YZ=     1.9007   ZZ=    37.1870
   Eigenvalues:    27.3543    34.0153    38.1580
     15  H    Isotropic =    32.3836   Anisotropy =    15.3862
   XX=    37.9593   YX=     3.2782   ZX=     6.1421
   XY=     3.2151   YY=    28.1861   ZY=     2.2694
   XZ=     6.1581   YZ=     2.3772   ZZ=    31.0055
   Eigenvalues:    26.8625    27.6473    42.6411
     16  H    Isotropic =    31.4305   Anisotropy =     9.8403
   XX=    32.8655   YX=     1.5047   ZX=    -3.0872
   XY=     1.0142   YY=    29.0977   ZY=    -4.0621
   XZ=    -3.5094   YZ=    -5.3411   ZZ=    32.3282
   Eigenvalues:    25.6114    30.6894    37.9907
     17  H    Isotropic =    32.5932   Anisotropy =    12.4313
   XX=    35.0379   YX=    -3.9075   ZX=     2.5285
   XY=    -3.9937   YY=    37.2703   ZY=    -1.7565
   XZ=     2.7066   YZ=    -2.0175   ZZ=    25.4715
   Eigenvalues:    24.7356    32.1632    40.8808
     18  H    Isotropic =    32.9194   Anisotropy =    10.8027
   XX=    32.1121   YX=     1.0183   ZX=    -3.3474
   XY=     0.6678   YY=    28.7126   ZY=     3.2217
   XZ=    -3.2872   YZ=     3.5469   ZZ=    37.9335
   Eigenvalues:    26.8662    31.7707    40.1212
     19  H    Isotropic =    33.1832   Anisotropy =     7.5629
   XX=    35.0324   YX=     0.1597   ZX=    -1.7808
   XY=    -0.4411   YY=    26.9257   ZY=    -0.0610
   XZ=    -1.0638   YZ=     0.0240   ZZ=    37.5914
   Eigenvalues:    26.9231    34.4013    38.2251
     20  H    Isotropic =    32.6734   Anisotropy =    12.0923
   XX=    30.5730   YX=     0.4835   ZX=    -2.7344
   XY=     0.6905   YY=    34.7703   ZY=    -6.2671
   XZ=    -2.8996   YZ=    -6.5465   ZZ=    32.6768
   Eigenvalues:    26.4087    30.8766    40.7349
     21  H    Isotropic =    32.1932   Anisotropy =    15.0278
   XX=    30.2674   YX=     2.8411   ZX=     2.0849
   XY=     2.9302   YY=    35.9308   ZY=     7.2758
   XZ=     2.5162   YZ=     7.5605   ZZ=    30.3816
   Eigenvalues:    25.2217    29.1463    42.2118
     22  H    Isotropic =    32.3287   Anisotropy =    13.8406
   XX=    34.0082   YX=    -6.2366   ZX=     2.2279
   XY=    -5.6504   YY=    35.4902   ZY=    -2.7625
   XZ=     1.6576   YZ=    -2.8484   ZZ=    27.4878
   Eigenvalues:    26.6010    28.8294    41.5558
     23  H    Isotropic =    32.2810   Anisotropy =    13.0369
   XX=    28.6480   YX=     0.3530   ZX=     1.0789
   XY=     0.6921   YY=    27.3646   ZY=    -0.0528
   XZ=     1.4283   YZ=    -0.9342   ZZ=    40.8305
   Eigenvalues:    27.1190    28.7518    40.9723
     24  H    Isotropic =    35.1576   Anisotropy =    13.2294
   XX=    32.4582   YX=     0.8627   ZX=    -7.6241
   XY=     2.5388   YY=    33.9839   ZY=     1.6106
   XZ=    -7.1229   YZ=     3.5382   ZZ=    39.0308
   Eigenvalues:    26.5786    34.9170    43.9772
     25  H    Isotropic =    32.0309   Anisotropy =    11.1619
   XX=    31.4015   YX=     2.0783   ZX=     1.7075
   XY=     1.6265   YY=    37.2870   ZY=     4.3001
   XZ=     1.8655   YZ=     3.9447   ZZ=    27.4041
   Eigenvalues:    25.7020    30.9185    39.4721
     26  H    Isotropic =    32.7990   Anisotropy =    10.1534
   XX=    31.3307   YX=    -0.7379   ZX=    -3.0604
   XY=    -1.0951   YY=    34.9627   ZY=     4.9813
   XZ=    -3.1427   YZ=     4.9784   ZZ=    32.1035
   Eigenvalues:    27.2802    31.5488    39.5679
     27  H    Isotropic =    32.5422   Anisotropy =    10.9798
   XX=    31.7423   YX=    -1.2348   ZX=    -0.5390
   XY=    -1.5927   YY=    29.6654   ZY=    -5.8416
   XZ=    -0.4191   YZ=    -6.3204   ZZ=    36.2188
   Eigenvalues:    25.6826    32.0818    39.8621
     28  H    Isotropic =    32.5099   Anisotropy =    14.9336
   XX=    40.9085   YX=     3.8586   ZX=    -2.6214
   XY=     3.6093   YY=    27.2622   ZY=    -1.0283
   XZ=    -2.6466   YZ=    -1.0446   ZZ=    29.3590
   Eigenvalues:    26.2596    28.8044    42.4656
     29  H    Isotropic =    32.5572   Anisotropy =    10.0474
   XX=    30.6457   YX=    -2.3604   ZX=     2.2545
   XY=    -2.4851   YY=    38.4466   ZY=    -0.4678
   XZ=     2.2818   YZ=    -0.5189   ZZ=    28.5793
   Eigenvalues:    27.0426    31.3736    39.2554
     30  H    Isotropic =    32.5845   Anisotropy =    12.2849
   XX=    30.5946   YX=    -0.9986   ZX=    -0.4366
   XY=    -0.8571   YY=    26.5219   ZY=    -1.5111
   XZ=    -0.5390   YZ=    -1.1197   ZZ=    40.6371
   Eigenvalues:    26.1869    30.7922    40.7745
     31  H    Isotropic =    32.3943   Anisotropy =    14.6835
   XX=    40.5843   YX=     1.4101   ZX=     4.4182
   XY=     0.8215   YY=    26.8593   ZY=    -0.8181
   XZ=     4.3816   YZ=    -0.8965   ZZ=    29.7393
   Eigenvalues:    26.1390    28.8606    42.1833
 End of Minotr Frequency-dependent properties file   721 does not exist.
 End of Minotr Frequency-dependent properties file   722 does not exist.

 **********************************************************************

            Population analysis using the SCF density.

 **********************************************************************

 Orbital symmetries:
       Occupied  (A) (A) (A) (A) (A) (A) (A) (A) (A) (A) (A) (A)
                 (A) (A) (A) (A) (A) (A) (A) (A) (A) (A) (A) (A)
                 (A) (A) (A) (A) (A) (A) (A) (A) (A) (A) (A) (A)
                 (A) (A) (A) (A) (A) (A) (A) (A)
       Virtual   (A) (A) (A) (A) (A) (A) (A) (A) (A) (A) (A) (A)
                 (A) (A) (A) (A) (A) (A) (A) (A) (A) (A) (A) (A)
                 (A) (A) (A) (A) (A) (A) (A)
 The electronic state is 1-A.
 Alpha  occ. eigenvalues --  -20.23373 -11.08314 -11.04937 -11.04528 -11.04345
 Alpha  occ. eigenvalues --  -11.03864 -11.03781 -11.03775 -11.03696 -11.02962
 Alpha  occ. eigenvalues --  -11.02945  -1.27573  -1.08330  -1.03810  -0.96892
 Alpha  occ. eigenvalues --   -0.94738  -0.89014  -0.88797  -0.80660  -0.78477
 Alpha  occ. eigenvalues --   -0.72831  -0.69249  -0.62720  -0.60832  -0.59237
 Alpha  occ. eigenvalues --   -0.57034  -0.55943  -0.54915  -0.53755  -0.52109
 Alpha  occ. eigenvalues --   -0.52045  -0.50739  -0.50093  -0.48802  -0.46543
 Alpha  occ. eigenvalues --   -0.45355  -0.44215  -0.43310  -0.42374  -0.41511
 Alpha  occ. eigenvalues --   -0.39971  -0.39142  -0.35681  -0.32582
 Alpha virt. eigenvalues --    0.53944   0.54629   0.57695   0.59255   0.60049
 Alpha virt. eigenvalues --    0.61129   0.62180   0.63221   0.64288   0.66666
 Alpha virt. eigenvalues --    0.67044   0.67914   0.68335   0.71006   0.71891
 Alpha virt. eigenvalues --    0.72146   0.72806   0.74630   0.76116   0.76901
 Alpha virt. eigenvalues --    0.77014   0.78400   0.79072   0.79559   0.80263
 Alpha virt. eigenvalues --    0.81255   0.82065   0.83485   0.85623   0.86034
 Alpha virt. eigenvalues --    0.87427
          Condensed to atoms (all electrons):
              1          2          3          4          5          6
     1  C    4.748649   0.363783  -0.000556   0.000426  -0.000313  -0.024205
     2  C    0.363783   4.750213  -0.020082  -0.020061  -0.005612   0.360341
     3  C   -0.000556  -0.020082   4.746932  -0.022400   0.355796  -0.003378
     4  C    0.000426  -0.020061  -0.022400   4.756508   0.361168   0.361327
     5  C   -0.000313  -0.005612   0.355796   0.361168   4.789516  -0.021590
     6  C   -0.024205   0.360341  -0.003378   0.361327  -0.021590   4.760721
     7  C   -0.024090   0.361230   0.355076  -0.007159  -0.022289  -0.022033
     8  O   -0.000156   0.000126   0.268744   0.000268  -0.018687   0.000005
     9  C    0.000002   0.000011  -0.020281  -0.019290   0.359340   0.000618
    10  C    0.000000   0.000000  -0.001424  -0.002715  -0.020346   0.000010
    11  C    0.000000   0.000000   0.000638  -0.001336  -0.022534   0.000004
    12  H    0.382183  -0.020145   0.000030  -0.000019   0.000014   0.001260
    13  H    0.382667  -0.020033  -0.000012   0.000006   0.000008  -0.001927
    14  H    0.381704  -0.020438   0.000201   0.000110  -0.000610  -0.002176
    15  H   -0.026211   0.383912   0.001201   0.001128   0.000018  -0.023691
    16  H   -0.000015   0.001206   0.380237   0.000024  -0.022947   0.000038
    17  H   -0.000014   0.001135   0.001187   0.383355  -0.020107  -0.021972
    18  H   -0.000015  -0.000135  -0.002816   0.382274  -0.022670  -0.023059
    19  H   -0.000869   0.000137  -0.024015  -0.024285   0.379418  -0.002872
    20  H   -0.006386  -0.021865   0.000027  -0.022675  -0.000439   0.382505
    21  H    0.001300  -0.021985   0.000003  -0.022976   0.001271   0.382786
    22  H   -0.003079  -0.021041  -0.020791   0.000066   0.000993   0.001154
    23  H    0.001393  -0.023435  -0.021787  -0.000317   0.000503  -0.001322
    24  H   -0.000771   0.000113  -0.041856  -0.000003  -0.002967   0.000023
    25  H    0.000000  -0.000001  -0.003140   0.001099  -0.023050  -0.000014
    26  H    0.000000   0.000000   0.000038  -0.000599  -0.001399   0.000004
    27  H    0.000000   0.000000  -0.000722  -0.000064  -0.001702  -0.000002
    28  H    0.000000   0.000000   0.000015   0.000028   0.001118   0.000000
    29  H    0.000000   0.000000  -0.000003  -0.000530  -0.001408  -0.000005
    30  H    0.000000   0.000000   0.000023   0.000042  -0.002588  -0.000002
    31  H    0.000000   0.000000  -0.000014   0.000008   0.001182   0.000000
              7          8          9         10         11         12
     1  C   -0.024090  -0.000156   0.000002   0.000000   0.000000   0.382183
     2  C    0.361230   0.000126   0.000011   0.000000   0.000000  -0.020145
     3  C    0.355076   0.268744  -0.020281  -0.001424   0.000638   0.000030
     4  C   -0.007159   0.000268  -0.019290  -0.002715  -0.001336  -0.000019
     5  C   -0.022289  -0.018687   0.359340  -0.020346  -0.022534   0.000014
     6  C   -0.022033   0.000005   0.000618   0.000010   0.000004   0.001260
     7  C    4.786180  -0.019619   0.000566   0.000007  -0.000004  -0.002700
     8  O   -0.019619   7.850498  -0.000250   0.000010  -0.000002  -0.000020
     9  C    0.000566  -0.000250   4.740424   0.364454   0.364385   0.000000
    10  C    0.000007   0.000010   0.364454   4.742264  -0.026328   0.000000
    11  C   -0.000004  -0.000002   0.364385  -0.026328   4.743905   0.000000
    12  H   -0.002700  -0.000020   0.000000   0.000000   0.000000   0.630245
    13  H    0.001254   0.000003   0.000000   0.000000   0.000000  -0.021467
    14  H   -0.001164  -0.000414   0.000004   0.000000   0.000000  -0.022171
    15  H   -0.023546  -0.000007   0.000000   0.000000   0.000000  -0.001862
    16  H   -0.025982  -0.020352  -0.004002  -0.000719   0.000021  -0.000003
    17  H    0.000054  -0.000005  -0.002054  -0.000093  -0.000540   0.000001
    18  H   -0.000171   0.000003  -0.001184  -0.000571   0.000041   0.000001
    19  H   -0.000078  -0.002495  -0.024633   0.001154  -0.004032   0.000013
    20  H    0.001079   0.000000  -0.000004   0.000000   0.000002   0.000100
    21  H    0.000594   0.000000  -0.000014   0.000000   0.000000  -0.000038
    22  H    0.381880  -0.001976  -0.000010   0.000000   0.000000   0.000181
    23  H    0.380062   0.000666  -0.000011   0.000005   0.000000   0.000036
    24  H   -0.002520   0.257542   0.000031  -0.000003  -0.000003  -0.000104
    25  H    0.000025   0.000425   0.382064  -0.024184  -0.024581   0.000000
    26  H   -0.000001   0.000000  -0.020431   0.382347  -0.002527   0.000000
    27  H   -0.000011   0.000006  -0.019560   0.382273   0.001327   0.000000
    28  H    0.000000   0.000000  -0.019899   0.382526  -0.002302   0.000000
    29  H    0.000000   0.000000  -0.020249  -0.002405   0.382185   0.000000
    30  H    0.000000   0.000000  -0.020176   0.001321   0.382127   0.000000
    31  H    0.000000   0.000000  -0.019856  -0.002190   0.382498   0.000000
             13         14         15         16         17         18
     1  C    0.382667   0.381704  -0.026211  -0.000015  -0.000014  -0.000015
     2  C   -0.020033  -0.020438   0.383912   0.001206   0.001135  -0.000135
     3  C   -0.000012   0.000201   0.001201   0.380237   0.001187  -0.002816
     4  C    0.000006   0.000110   0.001128   0.000024   0.383355   0.382274
     5  C    0.000008  -0.000610   0.000018  -0.022947  -0.020107  -0.022670
     6  C   -0.001927  -0.002176  -0.023691   0.000038  -0.021972  -0.023059
     7  C    0.001254  -0.001164  -0.023546  -0.025982   0.000054  -0.000171
     8  O    0.000003  -0.000414  -0.000007  -0.020352  -0.000005   0.000003
     9  C    0.000000   0.000004   0.000000  -0.004002  -0.002054  -0.001184
    10  C    0.000000   0.000000   0.000000  -0.000719  -0.000093  -0.000571
    11  C    0.000000   0.000000   0.000000   0.000021  -0.000540   0.000041
    12  H   -0.021467  -0.022171  -0.001862  -0.000003   0.000001   0.000001
    13  H    0.628482  -0.022181  -0.003447   0.000001   0.000000   0.000000
    14  H   -0.022181   0.640150   0.001994  -0.000005  -0.000010  -0.000001
    15  H   -0.003447   0.001994   0.652042  -0.000036  -0.000027  -0.000002
    16  H    0.000001  -0.000005  -0.000036   0.633701  -0.000024   0.000266
    17  H    0.000000  -0.000010  -0.000027  -0.000024   0.637400  -0.023795
    18  H    0.000000  -0.000001  -0.000002   0.000266  -0.023795   0.645421
    19  H    0.000019  -0.000493  -0.000003   0.001719  -0.001631   0.001968
    20  H   -0.000010   0.000034   0.001008   0.000001  -0.005218   0.001968
    21  H    0.000058   0.000004  -0.007239   0.000003  -0.000147  -0.005412
    22  H    0.000039   0.000016  -0.001400   0.000170   0.000001   0.000000
    23  H   -0.000039  -0.000009  -0.004091  -0.006071   0.000010  -0.000393
    24  H    0.000009  -0.000389  -0.000007   0.003686  -0.000001   0.000000
    25  H    0.000000   0.000001   0.000000  -0.000047   0.000009  -0.000007
    26  H    0.000000   0.000000   0.000000   0.000028  -0.000062  -0.000750
    27  H    0.000000   0.000000   0.000000  -0.000304   0.000017  -0.000025
    28  H    0.000000   0.000000   0.000000  -0.000023  -0.000007   0.000009
    29  H    0.000000   0.000000   0.000000   0.000000  -0.000462   0.000029
    30  H    0.000000   0.000000   0.000000   0.000000   0.000036  -0.000001
    31  H    0.000000   0.000000   0.000000  -0.000001  -0.000007  -0.000002
             19         20         21         22         23         24
     1  C   -0.000869  -0.006386   0.001300  -0.003079   0.001393  -0.000771
     2  C    0.000137  -0.021865  -0.021985  -0.021041  -0.023435   0.000113
     3  C   -0.024015   0.000027   0.000003  -0.020791  -0.021787  -0.041856
     4  C   -0.024285  -0.022675  -0.022976   0.000066  -0.000317  -0.000003
     5  C    0.379418  -0.000439   0.001271   0.000993   0.000503  -0.002967
     6  C   -0.002872   0.382505   0.382786   0.001154  -0.001322   0.000023
     7  C   -0.000078   0.001079   0.000594   0.381880   0.380062  -0.002520
     8  O   -0.002495   0.000000   0.000000  -0.001976   0.000666   0.257542
     9  C   -0.024633  -0.000004  -0.000014  -0.000010  -0.000011   0.000031
    10  C    0.001154   0.000000   0.000000   0.000000   0.000005  -0.000003
    11  C   -0.004032   0.000002   0.000000   0.000000   0.000000  -0.000003
    12  H    0.000013   0.000100  -0.000038   0.000181   0.000036  -0.000104
    13  H    0.000019  -0.000010   0.000058   0.000039  -0.000039   0.000009
    14  H   -0.000493   0.000034   0.000004   0.000016  -0.000009  -0.000389
    15  H   -0.000003   0.001008  -0.007239  -0.001400  -0.004091  -0.000007
    16  H    0.001719   0.000001   0.000003   0.000170  -0.006071   0.003686
    17  H   -0.001631  -0.005218  -0.000147   0.000001   0.000010  -0.000001
    18  H    0.001968   0.001968  -0.005412   0.000000  -0.000393   0.000000
    19  H    0.658796   0.000314   0.000023  -0.000033  -0.000008   0.000755
    20  H    0.000314   0.644013  -0.024094  -0.000032  -0.000002  -0.000001
    21  H    0.000023  -0.024094   0.645543  -0.000023   0.000149   0.000000
    22  H   -0.000033  -0.000032  -0.000023   0.625581  -0.022075   0.000159
    23  H   -0.000008  -0.000002   0.000149  -0.022075   0.645576  -0.000024
    24  H    0.000755  -0.000001   0.000000   0.000159  -0.000024   0.610866
    25  H   -0.001290   0.000000   0.000000  -0.000001  -0.000001   0.000011
    26  H    0.000001   0.000000   0.000001   0.000000   0.000000   0.000000
    27  H    0.000006   0.000000   0.000000   0.000001   0.000008  -0.000001
    28  H   -0.000029   0.000000   0.000000   0.000000   0.000000   0.000000
    29  H    0.000016   0.000002   0.000001   0.000000   0.000000   0.000000
    30  H    0.000136   0.000000   0.000000   0.000000   0.000000  -0.000001
    31  H    0.000049   0.000000   0.000000   0.000000   0.000000   0.000000
             25         26         27         28         29         30
     1  C    0.000000   0.000000   0.000000   0.000000   0.000000   0.000000
     2  C   -0.000001   0.000000   0.000000   0.000000   0.000000   0.000000
     3  C   -0.003140   0.000038  -0.000722   0.000015  -0.000003   0.000023
     4  C    0.001099  -0.000599  -0.000064   0.000028  -0.000530   0.000042
     5  C   -0.023050  -0.001399  -0.001702   0.001118  -0.001408  -0.002588
     6  C   -0.000014   0.000004  -0.000002   0.000000  -0.000005  -0.000002
     7  C    0.000025  -0.000001  -0.000011   0.000000   0.000000   0.000000
     8  O    0.000425   0.000000   0.000006   0.000000   0.000000   0.000000
     9  C    0.382064  -0.020431  -0.019560  -0.019899  -0.020249  -0.020176
    10  C   -0.024184   0.382347   0.382273   0.382526  -0.002405   0.001321
    11  C   -0.024581  -0.002527   0.001327  -0.002302   0.382185   0.382127
    12  H    0.000000   0.000000   0.000000   0.000000   0.000000   0.000000
    13  H    0.000000   0.000000   0.000000   0.000000   0.000000   0.000000
    14  H    0.000001   0.000000   0.000000   0.000000   0.000000   0.000000
    15  H    0.000000   0.000000   0.000000   0.000000   0.000000   0.000000
    16  H   -0.000047   0.000028  -0.000304  -0.000023   0.000000   0.000000
    17  H    0.000009  -0.000062   0.000017  -0.000007  -0.000462   0.000036
    18  H   -0.000007  -0.000750  -0.000025   0.000009   0.000029  -0.000001
    19  H   -0.001290   0.000001   0.000006  -0.000029   0.000016   0.000136
    20  H    0.000000   0.000000   0.000000   0.000000   0.000002   0.000000
    21  H    0.000000   0.000001   0.000000   0.000000   0.000001   0.000000
    22  H   -0.000001   0.000000   0.000001   0.000000   0.000000   0.000000
    23  H   -0.000001   0.000000   0.000008   0.000000   0.000000   0.000000
    24  H    0.000011   0.000000  -0.000001   0.000000   0.000000  -0.000001
    25  H    0.641751   0.001881  -0.001868  -0.002757   0.001904  -0.002059
    26  H    0.001881   0.631759  -0.021878  -0.022048   0.000365   0.000016
    27  H   -0.001868  -0.021878   0.631106  -0.021871   0.000013  -0.000037
    28  H   -0.002757  -0.022048  -0.021871   0.629975  -0.000011   0.000028
    29  H    0.001904   0.000365   0.000013  -0.000011   0.632385  -0.021817
    30  H   -0.002059   0.000016  -0.000037   0.000028  -0.021817   0.632934
    31  H   -0.002763  -0.000018   0.000025   0.000078  -0.022023  -0.021717
             31
     1  C    0.000000
     2  C    0.000000
     3  C   -0.000014
     4  C    0.000008
     5  C    0.001182
     6  C    0.000000
     7  C    0.000000
     8  O    0.000000
     9  C   -0.019856
    10  C   -0.002190
    11  C    0.382498
    12  H    0.000000
    13  H    0.000000
    14  H    0.000000
    15  H    0.000000
    16  H   -0.000001
    17  H   -0.000007
    18  H   -0.000002
    19  H    0.000049
    20  H    0.000000
    21  H    0.000000
    22  H    0.000000
    23  H    0.000000
    24  H    0.000000
    25  H   -0.002763
    26  H   -0.000018
    27  H    0.000025
    28  H    0.000078
    29  H   -0.022023
    30  H   -0.021717
    31  H    0.630334
 Mulliken atomic charges:
              1
     1  C   -0.175430
     2  C   -0.027374
     3  C    0.073127
     4  C   -0.103409
     5  C   -0.039086
     6  C   -0.102550
     7  C   -0.116642
     8  O   -0.314312
     9  C   -0.019995
    10  C   -0.175389
    11  C   -0.172944
    12  H    0.054465
    13  H    0.056569
    14  H    0.045844
    15  H    0.050267
    16  H    0.059431
    17  H    0.052972
    18  H    0.049031
    19  H    0.042241
    20  H    0.049673
    21  H    0.050192
    22  H    0.060220
    23  H    0.051177
    24  H    0.175453
    25  H    0.056591
    26  H    0.053274
    27  H    0.053265
    28  H    0.055172
    29  H    0.052014
    30  H    0.051736
    31  H    0.054415
 Sum of Mulliken atomic charges =   0.00000
 Mulliken charges with hydrogens summed into heavy atoms:
              1
     1  C   -0.018551
     2  C    0.022894
     3  C    0.132559
     4  C   -0.001406
     5  C    0.003155
     6  C   -0.002685
     7  C   -0.005245
     8  O   -0.138859
     9  C    0.036597
    10  C   -0.013679
    11  C   -0.014780
 Sum of Mulliken charges with hydrogens summed into heavy atoms =   0.00000
 Electronic spatial extent (au):  <R**2>=           2027.5764
 Charge=              0.0000 electrons
 Dipole moment (field-independent basis, Debye):
    X=             -0.5840    Y=             -1.4132    Z=              0.0721  Tot=              1.5308
 Quadrupole moment (field-independent basis, Debye-Ang):
   XX=            -66.6031   YY=            -72.9029   ZZ=            -66.1178
   XY=             -0.3641   XZ=             -0.6930   YZ=             -0.0010
 Traceless Quadrupole moment (field-independent basis, Debye-Ang):
   XX=              1.9382   YY=             -4.3616   ZZ=              2.4234
   XY=             -0.3641   XZ=             -0.6930   YZ=             -0.0010
 Octapole moment (field-independent basis, Debye-Ang**2):
  XXX=             -3.2349  YYY=             -4.3161  ZZZ=              3.7892  XYY=             -1.4008
  XXY=              7.0861  XXZ=              1.4289  XZZ=             -3.2846  YZZ=              6.4235
  YYZ=             -0.2662  XYZ=             -1.2605
 Hexadecapole moment (field-independent basis, Debye-Ang**3):
 XXXX=          -1623.4769 YYYY=           -594.6725 ZZZZ=           -384.6580 XXXY=             -0.7920
 XXXZ=              2.8050 YYYX=             -6.1276 YYYZ=              2.3156 ZZZX=             -1.1706
 ZZZY=             10.6942 XXYY=           -358.3098 XXZZ=           -345.0712 YYZZ=           -151.4368
 XXYZ=              5.7989 YYXZ=             -5.2284 ZZXY=             -0.6118
 N-N= 6.983724899567D+02 E-N=-2.468621399071D+03  KE= 4.555726143596D+02
 ******************************Gaussian NBO Version 3.1******************************
             N A T U R A L   A T O M I C   O R B I T A L   A N D
          N A T U R A L   B O N D   O R B I T A L   A N A L Y S I S
 ******************************Gaussian NBO Version 3.1******************************
       /RESON  / : Allow strongly delocalized NBO set
       /NLMO   / : Form Natural Localized Molecular Orbitals
       /NMR /    : Analyze NMR Sheilding Tensor 

 Analyzing the SCF density

 Job title: comment                                                         

 Storage needed:     19864 in NPA,     23691 in NBO,     45933 in NLMO (  33549317 available)


 NATURAL POPULATIONS:  Natural atomic orbital occupancies 
                                                          
   NAO  Atom  No  lang   Type(AO)    Occupancy      Energy
 ----------------------------------------------------------
     1    C    1  S      Cor( 1S)     1.99997     -10.97119
     2    C    1  S      Val( 2S)     1.08166      -0.18937
     3    C    1  px     Val( 2p)     1.02114       0.07640
     4    C    1  py     Val( 2p)     1.02953       0.07500
     5    C    1  pz     Val( 2p)     0.99753       0.08271

     6    C    2  S      Cor( 1S)     1.99997     -10.99256
     7    C    2  S      Val( 2S)     1.08195      -0.19781
     8    C    2  px     Val( 2p)     0.98264       0.09865
     9    C    2  py     Val( 2p)     0.96064       0.10593
    10    C    2  pz     Val( 2p)     0.96389       0.10521

    11    C    3  S      Cor( 1S)     1.99989     -11.03238
    12    C    3  S      Val( 2S)     1.09081      -0.21631
    13    C    3  px     Val( 2p)     0.96733       0.08977
    14    C    3  py     Val( 2p)     0.88518       0.11457
    15    C    3  pz     Val( 2p)     0.91692       0.10132

    16    C    4  S      Cor( 1S)     1.99996     -10.97680
    17    C    4  S      Val( 2S)     1.08293      -0.19036
    18    C    4  px     Val( 2p)     0.98095       0.09379
    19    C    4  py     Val( 2p)     0.99059       0.09509
    20    C    4  pz     Val( 2p)     1.01189       0.08992

    21    C    5  S      Cor( 1S)     1.99995     -10.98811
    22    C    5  S      Val( 2S)     1.10096      -0.21008
    23    C    5  px     Val( 2p)     0.96869       0.09775
    24    C    5  py     Val( 2p)     0.96188       0.10328
    25    C    5  pz     Val( 2p)     0.98705       0.10093

    26    C    6  S      Cor( 1S)     1.99996     -10.97660
    27    C    6  S      Val( 2S)     1.08606      -0.19226
    28    C    6  px     Val( 2p)     0.96922       0.10062
    29    C    6  py     Val( 2p)     0.98752       0.09276
    30    C    6  pz     Val( 2p)     1.02187       0.08841

    31    C    7  S      Cor( 1S)     1.99996     -10.97575
    32    C    7  S      Val( 2S)     1.09479      -0.20094
    33    C    7  px     Val( 2p)     0.99109       0.09053
    34    C    7  py     Val( 2p)     0.99695       0.09245
    35    C    7  pz     Val( 2p)     1.01067       0.08065

    36    O    8  S      Cor( 1S)     1.99999     -20.13747
    37    O    8  S      Val( 2S)     1.74934      -0.99487
    38    O    8  px     Val( 2p)     1.76672      -0.28517
    39    O    8  py     Val( 2p)     1.51190      -0.18890
    40    O    8  pz     Val( 2p)     1.30721      -0.09033

    41    C    9  S      Cor( 1S)     1.99996     -10.98936
    42    C    9  S      Val( 2S)     1.08507      -0.19462
    43    C    9  px     Val( 2p)     0.94672       0.11511
    44    C    9  py     Val( 2p)     0.99402       0.10265
    45    C    9  pz     Val( 2p)     0.95370       0.11314

    46    C   10  S      Cor( 1S)     1.99997     -10.96315
    47    C   10  S      Val( 2S)     1.07975      -0.18014
    48    C   10  px     Val( 2p)     1.02260       0.08387
    49    C   10  py     Val( 2p)     1.02798       0.08629
    50    C   10  pz     Val( 2p)     1.00106       0.08951

    51    C   11  S      Cor( 1S)     1.99997     -10.96341
    52    C   11  S      Val( 2S)     1.08115      -0.18139
    53    C   11  px     Val( 2p)     1.02166       0.08472
    54    C   11  py     Val( 2p)     1.01566       0.08833
    55    C   11  pz     Val( 2p)     1.01000       0.08691

    56    H   12  S      Val( 1S)     0.96298       0.06807

    57    H   13  S      Val( 1S)     0.96072       0.07005

    58    H   14  S      Val( 1S)     0.97100       0.06368

    59    H   15  S      Val( 1S)     0.97403       0.06466

    60    H   16  S      Val( 1S)     0.97625       0.06210

    61    H   17  S      Val( 1S)     0.96787       0.07135

    62    H   18  S      Val( 1S)     0.97170       0.06808

    63    H   19  S      Val( 1S)     0.98196       0.05920

    64    H   20  S      Val( 1S)     0.97128       0.06817

    65    H   21  S      Val( 1S)     0.97063       0.06903

    66    H   22  S      Val( 1S)     0.96033       0.07158

    67    H   23  S      Val( 1S)     0.96873       0.06673

    68    H   24  S      Val( 1S)     0.81262       0.08047

    69    H   25  S      Val( 1S)     0.96955       0.07535

    70    H   26  S      Val( 1S)     0.96402       0.07600

    71    H   27  S      Val( 1S)     0.96412       0.07808

    72    H   28  S      Val( 1S)     0.96186       0.07657

    73    H   29  S      Val( 1S)     0.96548       0.07566

    74    H   30  S      Val( 1S)     0.96556       0.07471

    75    H   31  S      Val( 1S)     0.96290       0.07592


 Summary of Natural Population Analysis:                  
                                                          
                                       Natural Population 
                Natural  -----------------------------------------------
    Atom  No    Charge         Core      Valence    Rydberg      Total
 -----------------------------------------------------------------------
      C    1   -0.12983      1.99997     4.12986    0.00000     6.12983
      C    2    0.01092      1.99997     3.98912    0.00000     5.98908
      C    3    0.13987      1.99989     3.86024    0.00000     5.86013
      C    4   -0.06632      1.99996     4.06636    0.00000     6.06632
      C    5   -0.01853      1.99995     4.01858    0.00000     6.01853
      C    6   -0.06463      1.99996     4.06467    0.00000     6.06463
      C    7   -0.09346      1.99996     4.09350    0.00000     6.09346
      O    8   -0.33516      1.99999     6.33517    0.00000     8.33516
      C    9    0.02052      1.99996     3.97952    0.00000     5.97948
      C   10   -0.13135      1.99997     4.13138    0.00000     6.13135
      C   11   -0.12844      1.99997     4.12847    0.00000     6.12844
      H   12    0.03702      0.00000     0.96298    0.00000     0.96298
      H   13    0.03928      0.00000     0.96072    0.00000     0.96072
      H   14    0.02900      0.00000     0.97100    0.00000     0.97100
      H   15    0.02597      0.00000     0.97403    0.00000     0.97403
      H   16    0.02375      0.00000     0.97625    0.00000     0.97625
      H   17    0.03213      0.00000     0.96787    0.00000     0.96787
      H   18    0.02830      0.00000     0.97170    0.00000     0.97170
      H   19    0.01804      0.00000     0.98196    0.00000     0.98196
      H   20    0.02872      0.00000     0.97128    0.00000     0.97128
      H   21    0.02937      0.00000     0.97063    0.00000     0.97063
      H   22    0.03967      0.00000     0.96033    0.00000     0.96033
      H   23    0.03127      0.00000     0.96873    0.00000     0.96873
      H   24    0.18738      0.00000     0.81262    0.00000     0.81262
      H   25    0.03045      0.00000     0.96955    0.00000     0.96955
      H   26    0.03598      0.00000     0.96402    0.00000     0.96402
      H   27    0.03588      0.00000     0.96412    0.00000     0.96412
      H   28    0.03814      0.00000     0.96186    0.00000     0.96186
      H   29    0.03452      0.00000     0.96548    0.00000     0.96548
      H   30    0.03444      0.00000     0.96556    0.00000     0.96556
      H   31    0.03710      0.00000     0.96290    0.00000     0.96290
 =======================================================================
   * Total *    0.00000     21.99955    66.00045    0.00000    88.00000

                                 Natural Population      
 --------------------------------------------------------
   Core                      21.99955 ( 99.9980% of  22)
   Valence                   66.00045 (100.0007% of  66)
   Natural Minimal Basis     88.00000 (100.0000% of  88)
   Natural Rydberg Basis      0.00000 (  0.0000% of  88)
 --------------------------------------------------------

    Atom  No          Natural Electron Configuration
 ----------------------------------------------------------------------------
      C    1      [core]2S( 1.08)2p( 3.05)
      C    2      [core]2S( 1.08)2p( 2.91)
      C    3      [core]2S( 1.09)2p( 2.77)
      C    4      [core]2S( 1.08)2p( 2.98)
      C    5      [core]2S( 1.10)2p( 2.92)
      C    6      [core]2S( 1.09)2p( 2.98)
      C    7      [core]2S( 1.09)2p( 3.00)
      O    8      [core]2S( 1.75)2p( 4.59)
      C    9      [core]2S( 1.09)2p( 2.89)
      C   10      [core]2S( 1.08)2p( 3.05)
      C   11      [core]2S( 1.08)2p( 3.05)
      H   12            1S( 0.96)
      H   13            1S( 0.96)
      H   14            1S( 0.97)
      H   15            1S( 0.97)
      H   16            1S( 0.98)
      H   17            1S( 0.97)
      H   18            1S( 0.97)
      H   19            1S( 0.98)
      H   20            1S( 0.97)
      H   21            1S( 0.97)
      H   22            1S( 0.96)
      H   23            1S( 0.97)
      H   24            1S( 0.81)
      H   25            1S( 0.97)
      H   26            1S( 0.96)
      H   27            1S( 0.96)
      H   28            1S( 0.96)
      H   29            1S( 0.97)
      H   30            1S( 0.97)
      H   31            1S( 0.96)


 NATURAL BOND ORBITAL ANALYSIS:

                       Occupancies       Lewis Structure    Low   High
           Occ.    -------------------  -----------------   occ   occ
  Cycle   Thresh.   Lewis   Non-Lewis     CR  BD  3C  LP    (L)   (NL)   Dev
 =============================================================================
   1(1)    1.90    87.63859   0.36141     11  31   0   2     0      0    0.02
 -----------------------------------------------------------------------------

 Structure accepted: No low occupancy Lewis orbitals

 --------------------------------------------------------
   Core                     21.99954 ( 99.998% of  22)
   Valence Lewis            65.63904 ( 99.453% of  66)
  ==================       ============================
   Total Lewis              87.63859 ( 99.589% of  88)
  -----------------------------------------------------
   Valence non-Lewis         0.36141 (  0.411% of  88)
   Rydberg non-Lewis         0.00000 (  0.000% of  88)
  ==================       ============================
   Total non-Lewis           0.36141 (  0.411% of  88)
 --------------------------------------------------------


       (Occupancy)   Bond orbital/ Coefficients/ Hybrids
 ---------------------------------------------------------------------------------
     1. (1.99103) BD ( 1) C   1 - C   2  
                ( 51.17%)   0.7153* C   1 s( 25.89%)p 2.86( 74.11%)
                                            0.0001  0.5088  0.3134 -0.1825 -0.7808
                ( 48.83%)   0.6988* C   2 s( 24.93%)p 3.01( 75.07%)
                                            0.0000  0.4993 -0.2628  0.1987  0.8014
     2. (1.99494) BD ( 1) C   1 - H  12  
                ( 51.87%)   0.7202* C   1 s( 24.71%)p 3.05( 75.29%)
                                            0.0000  0.4971 -0.5159  0.6962 -0.0458
                ( 48.13%)   0.6938* H  12 s(100.00%)
                                            1.0000
     3. (1.99447) BD ( 1) C   1 - H  13  
                ( 51.96%)   0.7208* C   1 s( 24.56%)p 3.07( 75.44%)
                                            0.0000  0.4956 -0.4595 -0.6749  0.2963
                ( 48.04%)   0.6931* H  13 s(100.00%)
                                            1.0000
     4. (1.99347) BD ( 1) C   1 - H  14  
                ( 51.48%)   0.7175* C   1 s( 24.84%)p 3.03( 75.16%)
                                            0.0000  0.4984  0.6516  0.1630  0.5482
                ( 48.52%)   0.6966* H  14 s(100.00%)
                                            1.0000
     5. (1.98522) BD ( 1) C   2 - C   6  
                ( 49.72%)   0.7051* C   2 s( 25.37%)p 2.94( 74.63%)
                                            0.0000  0.5037  0.5574 -0.6592  0.0325
                ( 50.28%)   0.7091* C   6 s( 25.72%)p 2.89( 74.28%)
                                            0.0001  0.5072 -0.5079  0.6960 -0.0186
     6. (1.98586) BD ( 1) C   2 - C   7  
                ( 49.69%)   0.7049* C   2 s( 25.40%)p 2.94( 74.60%)
                                            0.0000  0.5039  0.3788  0.6876 -0.3602
                ( 50.31%)   0.7093* C   7 s( 25.16%)p 2.97( 74.84%)
                                            0.0001  0.5016 -0.3356 -0.6769  0.4214
     7. (1.98538) BD ( 1) C   2 - H  15  
                ( 51.18%)   0.7154* C   2 s( 24.31%)p 3.11( 75.69%)
                                            0.0000  0.4931 -0.6905 -0.2306 -0.4764
                ( 48.82%)   0.6987* H  15 s(100.00%)
                                            1.0000
     8. (1.98230) BD ( 1) C   3 - C   5  
                ( 50.11%)   0.7079* C   3 s( 26.09%)p 2.83( 73.91%)
                                            0.0001  0.5108  0.4218 -0.6560  0.3617
                ( 49.89%)   0.7063* C   5 s( 24.80%)p 3.03( 75.20%)
                                            0.0000  0.4980 -0.4265  0.6456 -0.3916
     9. (1.98740) BD ( 1) C   3 - C   7  
                ( 49.27%)   0.7019* C   3 s( 25.81%)p 2.87( 74.19%)
                                            0.0000  0.5081 -0.7767 -0.2539 -0.2723
                ( 50.73%)   0.7122* C   7 s( 25.47%)p 2.93( 74.53%)
                                            0.0000  0.5047  0.7657  0.2066  0.3410
    10. (1.98851) BD ( 1) C   3 - O   8  
                ( 41.04%)   0.6406* C   3 s( 22.04%)p 3.54( 77.96%)
                                            0.0000  0.4695 -0.1122  0.6292  0.6092
                ( 58.96%)   0.7678* O   8 s( 16.46%)p 5.08( 83.54%)
                                            0.0000  0.4057  0.0562 -0.7246 -0.5543
    11. (1.98624) BD ( 1) C   3 - H  16  
                ( 51.30%)   0.7163* C   3 s( 26.06%)p 2.84( 73.94%)
                                            0.0000  0.5105  0.4542  0.3304 -0.6511
                ( 48.70%)   0.6978* H  16 s(100.00%)
                                            1.0000
    12. (1.98522) BD ( 1) C   4 - C   5  
                ( 50.36%)   0.7097* C   4 s( 25.40%)p 2.94( 74.60%)
                                            0.0001  0.5040  0.2068  0.7423  0.3902
                ( 49.64%)   0.7045* C   5 s( 25.44%)p 2.93( 74.56%)
                                            0.0000  0.5044 -0.1732 -0.7457 -0.3993
    13. (1.98921) BD ( 1) C   4 - C   6  
                ( 49.94%)   0.7067* C   4 s( 25.00%)p 3.00( 75.00%)
                                            0.0000  0.5000 -0.8398 -0.1710  0.1247
                ( 50.06%)   0.7075* C   6 s( 25.35%)p 2.94( 74.65%)
                                            0.0000  0.5035  0.8253  0.2326 -0.1059
    14. (1.98944) BD ( 1) C   4 - H  17  
                ( 51.59%)   0.7182* C   4 s( 25.08%)p 2.99( 74.92%)
                                            0.0000  0.5008  0.4776 -0.6443  0.3255
                ( 48.41%)   0.6958* H  17 s(100.00%)
                                            1.0000
    15. (1.99098) BD ( 1) C   4 - H  18  
                ( 51.44%)   0.7172* C   4 s( 24.52%)p 3.08( 75.48%)
                                            0.0000  0.4952  0.1543  0.0688 -0.8522
                ( 48.56%)   0.6969* H  18 s(100.00%)
                                            1.0000
    16. (1.97927) BD ( 1) C   5 - C   9  
                ( 50.29%)   0.7092* C   5 s( 25.42%)p 2.93( 74.58%)
                                            0.0001  0.5041  0.8489  0.1570 -0.0246
                ( 49.71%)   0.7050* C   9 s( 25.29%)p 2.95( 74.71%)
                                            0.0001  0.5029 -0.8415 -0.1903 -0.0522
    17. (1.98201) BD ( 1) C   5 - H  19  
                ( 50.80%)   0.7128* C   5 s( 24.35%)p 3.11( 75.65%)
                                            0.0000  0.4934 -0.2598 -0.0496  0.8286
                ( 49.20%)   0.7014* H  19 s(100.00%)
                                            1.0000
    18. (1.99140) BD ( 1) C   6 - H  20  
                ( 51.45%)   0.7173* C   6 s( 24.68%)p 3.05( 75.32%)
                                            0.0000  0.4968 -0.0906 -0.4078  0.7607
                ( 48.55%)   0.6968* H  20 s(100.00%)
                                            1.0000
    19. (1.99144) BD ( 1) C   6 - H  21  
                ( 51.43%)   0.7172* C   6 s( 24.24%)p 3.12( 75.76%)
                                            0.0000  0.4924 -0.2294 -0.5433 -0.6401
                ( 48.57%)   0.6969* H  21 s(100.00%)
                                            1.0000
    20. (1.98786) BD ( 1) C   7 - H  22  
                ( 51.92%)   0.7205* C   7 s( 25.49%)p 2.92( 74.51%)
                                            0.0000  0.5049 -0.5377  0.6732  0.0522
                ( 48.08%)   0.6934* H  22 s(100.00%)
                                            1.0000
    21. (1.98930) BD ( 1) C   7 - H  23  
                ( 51.49%)   0.7176* C   7 s( 23.87%)p 3.19( 76.13%)
                                            0.0000  0.4886  0.1092 -0.2142 -0.8387
                ( 48.51%)   0.6965* H  23 s(100.00%)
                                            1.0000
    22. (1.98932) BD ( 1) O   8 - H  24  
                ( 59.45%)   0.7711* O   8 s( 16.93%)p 4.91( 83.07%)
                                            0.0000 -0.4114  0.5050  0.3311 -0.6827
                ( 40.55%)   0.6368* H  24 s(100.00%)
                                           -1.0000
    23. (1.99008) BD ( 1) C   9 - C  10  
                ( 48.99%)   0.6999* C   9 s( 25.27%)p 2.96( 74.73%)
                                            0.0000  0.5027  0.3683 -0.0866 -0.7773
                ( 51.01%)   0.7142* C  10 s( 25.86%)p 2.87( 74.14%)
                                            0.0001  0.5085 -0.4051  0.0624  0.7572
    24. (1.98915) BD ( 1) C   9 - C  11  
                ( 48.93%)   0.6995* C   9 s( 24.84%)p 3.03( 75.16%)
                                            0.0000  0.4984  0.3839 -0.5352  0.5638
                ( 51.07%)   0.7146* C  11 s( 25.77%)p 2.88( 74.23%)
                                            0.0001  0.5076 -0.4069  0.4989 -0.5726
    25. (1.98408) BD ( 1) C   9 - H  25  
                ( 51.42%)   0.7171* C   9 s( 24.60%)p 3.07( 75.40%)
                                            0.0000  0.4960  0.0942  0.8185  0.2743
                ( 48.58%)   0.6970* H  25 s(100.00%)
                                            1.0000
    26. (1.99533) BD ( 1) C  10 - H  26  
                ( 51.85%)   0.7201* C  10 s( 24.78%)p 3.04( 75.22%)
                                            0.0000  0.4978 -0.0244 -0.8206 -0.2796
                ( 48.15%)   0.6939* H  26 s(100.00%)
                                            1.0000
    27. (1.99408) BD ( 1) C  10 - H  27  
                ( 51.81%)   0.7198* C  10 s( 24.82%)p 3.03( 75.18%)
                                            0.0000  0.4982 -0.3860  0.5124 -0.5833
                ( 48.19%)   0.6942* H  27 s(100.00%)
                                            1.0000
    28. (1.99430) BD ( 1) C  10 - H  28  
                ( 51.89%)   0.7204* C  10 s( 24.54%)p 3.07( 75.46%)
                                            0.0000  0.4954  0.8284  0.2451  0.0903
                ( 48.11%)   0.6936* H  28 s(100.00%)
                                            1.0000
    29. (1.99514) BD ( 1) C  11 - H  29  
                ( 51.78%)   0.7196* C  11 s( 24.89%)p 3.02( 75.11%)
                                            0.0000  0.4989 -0.0340 -0.8277 -0.2547
                ( 48.22%)   0.6944* H  29 s(100.00%)
                                            1.0000
    30. (1.99500) BD ( 1) C  11 - H  30  
                ( 51.74%)   0.7193* C  11 s( 24.68%)p 3.05( 75.32%)
                                            0.0000  0.4968 -0.3798  0.0761  0.7766
                ( 48.26%)   0.6947* H  30 s(100.00%)
                                            1.0000
    31. (1.99473) BD ( 1) C  11 - H  31  
                ( 51.85%)   0.7201* C  11 s( 24.66%)p 3.06( 75.34%)
                                            0.0000  0.4966  0.8301  0.2455  0.0643
                ( 48.15%)   0.6939* H  31 s(100.00%)
                                            1.0000
    32. (1.99997) CR ( 1) C   1           s(100.00%)
                                            1.0000  0.0000 -0.0001  0.0000  0.0000
    33. (1.99997) CR ( 1) C   2           s(100.00%)
                                            1.0000  0.0000  0.0000  0.0000  0.0000
    34. (1.99989) CR ( 1) C   3           s(100.00%)p 0.00(  0.00%)
                                            1.0000  0.0000  0.0000  0.0001  0.0000
    35. (1.99996) CR ( 1) C   4           s(100.00%)
                                            1.0000  0.0000  0.0000 -0.0001  0.0000
    36. (1.99995) CR ( 1) C   5           s(100.00%)
                                            1.0000  0.0000  0.0000  0.0000  0.0000
    37. (1.99996) CR ( 1) C   6           s(100.00%)
                                            1.0000  0.0000  0.0000 -0.0001  0.0000
    38. (1.99996) CR ( 1) C   7           s(100.00%)
                                            1.0000  0.0000  0.0000  0.0001 -0.0001
    39. (1.99999) CR ( 1) O   8           s(100.00%)
                                            1.0000  0.0000  0.0000  0.0000  0.0000
    40. (1.99996) CR ( 1) C   9           s(100.00%)
                                            1.0000  0.0000  0.0001  0.0000  0.0000
    41. (1.99997) CR ( 1) C  10           s(100.00%)
                                            1.0000  0.0000  0.0001  0.0000 -0.0001
    42. (1.99997) CR ( 1) C  11           s(100.00%)
                                            1.0000  0.0000  0.0001  0.0000  0.0001
    43. (1.99329) LP ( 1) O   8           s( 66.61%)p 0.50( 33.39%)
                                            0.0000  0.8162  0.2265  0.5271 -0.0687
    44. (1.97358) LP ( 2) O   8           s(  0.00%)p 1.00(100.00%)
                                            0.0000  0.0002  0.8310 -0.2959  0.4711
    45. (0.01091) BD*( 1) C   1 - C   2  
                ( 48.83%)   0.6988* C   1 s( 25.89%)p 2.86( 74.11%)
                                           -0.0001 -0.5088 -0.3134  0.1825  0.7808
                ( 51.17%)  -0.7153* C   2 s( 24.93%)p 3.01( 75.07%)
                                            0.0000 -0.4993  0.2628 -0.1987 -0.8014
    46. (0.00540) BD*( 1) C   1 - H  12  
                ( 48.13%)   0.6938* C   1 s( 24.71%)p 3.05( 75.29%)
                                            0.0000 -0.4971  0.5159 -0.6962  0.0458
                ( 51.87%)  -0.7202* H  12 s(100.00%)
                                           -1.0000
    47. (0.00486) BD*( 1) C   1 - H  13  
                ( 48.04%)   0.6931* C   1 s( 24.56%)p 3.07( 75.44%)
                                            0.0000 -0.4956  0.4595  0.6749 -0.2963
                ( 51.96%)  -0.7208* H  13 s(100.00%)
                                           -1.0000
    48. (0.00729) BD*( 1) C   1 - H  14  
                ( 48.52%)   0.6966* C   1 s( 24.84%)p 3.03( 75.16%)
                                            0.0000 -0.4984 -0.6516 -0.1630 -0.5482
                ( 51.48%)  -0.7175* H  14 s(100.00%)
                                           -1.0000
    49. (0.01715) BD*( 1) C   2 - C   6  
                ( 50.28%)   0.7091* C   2 s( 25.37%)p 2.94( 74.63%)
                                            0.0000  0.5037  0.5574 -0.6592  0.0325
                ( 49.72%)  -0.7051* C   6 s( 25.72%)p 2.89( 74.28%)
                                            0.0001  0.5072 -0.5079  0.6960 -0.0186
    50. (0.01608) BD*( 1) C   2 - C   7  
                ( 50.31%)   0.7093* C   2 s( 25.40%)p 2.94( 74.60%)
                                            0.0000  0.5039  0.3788  0.6876 -0.3602
                ( 49.69%)  -0.7049* C   7 s( 25.16%)p 2.97( 74.84%)
                                            0.0001  0.5016 -0.3356 -0.6769  0.4214
    51. (0.00945) BD*( 1) C   2 - H  15  
                ( 48.82%)   0.6987* C   2 s( 24.31%)p 3.11( 75.69%)
                                            0.0000 -0.4931  0.6905  0.2306  0.4764
                ( 51.18%)  -0.7154* H  15 s(100.00%)
                                           -1.0000
    52. (0.03250) BD*( 1) C   3 - C   5  
                ( 49.89%)   0.7063* C   3 s( 26.09%)p 2.83( 73.91%)
                                           -0.0001 -0.5108 -0.4218  0.6560 -0.3617
                ( 50.11%)  -0.7079* C   5 s( 24.80%)p 3.03( 75.20%)
                                            0.0000 -0.4980  0.4265 -0.6456  0.3916
    53. (0.02894) BD*( 1) C   3 - C   7  
                ( 50.73%)   0.7122* C   3 s( 25.81%)p 2.87( 74.19%)
                                            0.0000  0.5081 -0.7767 -0.2539 -0.2723
                ( 49.27%)  -0.7019* C   7 s( 25.47%)p 2.93( 74.53%)
                                            0.0000  0.5047  0.7657  0.2066  0.3410
    54. (0.02217) BD*( 1) C   3 - O   8  
                ( 58.96%)   0.7678* C   3 s( 22.04%)p 3.54( 77.96%)
                                            0.0000  0.4695 -0.1122  0.6292  0.6092
                ( 41.04%)  -0.6406* O   8 s( 16.46%)p 5.08( 83.54%)
                                            0.0000  0.4057  0.0562 -0.7246 -0.5543
    55. (0.01753) BD*( 1) C   3 - H  16  
                ( 48.70%)   0.6978* C   3 s( 26.06%)p 2.84( 73.94%)
                                            0.0000 -0.5105 -0.4542 -0.3304  0.6511
                ( 51.30%)  -0.7163* H  16 s(100.00%)
                                           -1.0000
    56. (0.01587) BD*( 1) C   4 - C   5  
                ( 49.64%)   0.7045* C   4 s( 25.40%)p 2.94( 74.60%)
                                           -0.0001 -0.5040 -0.2068 -0.7423 -0.3902
                ( 50.36%)  -0.7097* C   5 s( 25.44%)p 2.93( 74.56%)
                                            0.0000 -0.5044  0.1732  0.7457  0.3993
    57. (0.01152) BD*( 1) C   4 - C   6  
                ( 50.06%)   0.7075* C   4 s( 25.00%)p 3.00( 75.00%)
                                            0.0000  0.5000 -0.8398 -0.1710  0.1247
                ( 49.94%)  -0.7067* C   6 s( 25.35%)p 2.94( 74.65%)
                                            0.0000  0.5035  0.8253  0.2326 -0.1059
    58. (0.00916) BD*( 1) C   4 - H  17  
                ( 48.41%)   0.6958* C   4 s( 25.08%)p 2.99( 74.92%)
                                            0.0000 -0.5008 -0.4776  0.6443 -0.3255
                ( 51.59%)  -0.7182* H  17 s(100.00%)
                                           -1.0000
    59. (0.00948) BD*( 1) C   4 - H  18  
                ( 48.56%)   0.6969* C   4 s( 24.52%)p 3.08( 75.48%)
                                            0.0000 -0.4952 -0.1543 -0.0688  0.8522
                ( 51.44%)  -0.7172* H  18 s(100.00%)
                                           -1.0000
    60. (0.02215) BD*( 1) C   5 - C   9  
                ( 49.71%)   0.7050* C   5 s( 25.42%)p 2.93( 74.58%)
                                           -0.0001 -0.5041 -0.8489 -0.1570  0.0246
                ( 50.29%)  -0.7092* C   9 s( 25.29%)p 2.95( 74.71%)
                                           -0.0001 -0.5029  0.8415  0.1903  0.0522
    61. (0.01352) BD*( 1) C   5 - H  19  
                ( 49.20%)   0.7014* C   5 s( 24.35%)p 3.11( 75.65%)
                                            0.0000 -0.4934  0.2598  0.0496 -0.8286
                ( 50.80%)  -0.7128* H  19 s(100.00%)
                                           -1.0000
    62. (0.00866) BD*( 1) C   6 - H  20  
                ( 48.55%)   0.6968* C   6 s( 24.68%)p 3.05( 75.32%)
                                            0.0000 -0.4968  0.0906  0.4078 -0.7607
                ( 51.45%)  -0.7173* H  20 s(100.00%)
                                           -1.0000
    63. (0.00677) BD*( 1) C   6 - H  21  
                ( 48.57%)   0.6969* C   6 s( 24.24%)p 3.12( 75.76%)
                                            0.0000 -0.4924  0.2294  0.5433  0.6401
                ( 51.43%)  -0.7172* H  21 s(100.00%)
                                           -1.0000
    64. (0.00874) BD*( 1) C   7 - H  22  
                ( 48.08%)   0.6934* C   7 s( 25.49%)p 2.92( 74.51%)
                                            0.0000 -0.5049  0.5377 -0.6732 -0.0522
                ( 51.92%)  -0.7205* H  22 s(100.00%)
                                           -1.0000
    65. (0.00720) BD*( 1) C   7 - H  23  
                ( 48.51%)   0.6965* C   7 s( 23.87%)p 3.19( 76.13%)
                                            0.0000 -0.4886 -0.1092  0.2142  0.8387
                ( 51.49%)  -0.7176* H  23 s(100.00%)
                                           -1.0000
    66. (0.01011) BD*( 1) O   8 - H  24  
                ( 40.55%)   0.6368* O   8 s( 16.93%)p 4.91( 83.07%)
                                            0.0000  0.4114 -0.5050 -0.3311  0.6827
                ( 59.45%)  -0.7711* H  24 s(100.00%)
                                            1.0000
    67. (0.01067) BD*( 1) C   9 - C  10  
                ( 51.01%)   0.7142* C   9 s( 25.27%)p 2.96( 74.73%)
                                            0.0000  0.5027  0.3683 -0.0866 -0.7773
                ( 48.99%)  -0.6999* C  10 s( 25.86%)p 2.87( 74.14%)
                                            0.0001  0.5085 -0.4051  0.0624  0.7572
    68. (0.01011) BD*( 1) C   9 - C  11  
                ( 51.07%)   0.7146* C   9 s( 24.84%)p 3.03( 75.16%)
                                            0.0000  0.4984  0.3839 -0.5352  0.5638
                ( 48.93%)  -0.6995* C  11 s( 25.77%)p 2.88( 74.23%)
                                            0.0001  0.5076 -0.4069  0.4989 -0.5726
    69. (0.01103) BD*( 1) C   9 - H  25  
                ( 48.58%)   0.6970* C   9 s( 24.60%)p 3.07( 75.40%)
                                            0.0000 -0.4960 -0.0942 -0.8185 -0.2743
                ( 51.42%)  -0.7171* H  25 s(100.00%)
                                           -1.0000
    70. (0.00628) BD*( 1) C  10 - H  26  
                ( 48.15%)   0.6939* C  10 s( 24.78%)p 3.04( 75.22%)
                                            0.0000 -0.4978  0.0244  0.8206  0.2796
                ( 51.85%)  -0.7201* H  26 s(100.00%)
                                           -1.0000
    71. (0.00632) BD*( 1) C  10 - H  27  
                ( 48.19%)   0.6942* C  10 s( 24.82%)p 3.03( 75.18%)
                                            0.0000 -0.4982  0.3860 -0.5124  0.5833
                ( 51.81%)  -0.7198* H  27 s(100.00%)
                                           -1.0000
    72. (0.00474) BD*( 1) C  10 - H  28  
[...]
 NLMO      Total    Paramagnetic  Diamagnetic   Paramagnetic  Diamagnetic
    9      -1.1333       -0.8053      -0.3280        -1.9215       0.7882
   10      20.6186        4.6865      15.9321        10.0191      10.5995
   11       1.0890        0.5039       0.5850        -0.2080       1.2970
   17      -0.6817       -0.9473       0.2655        -1.6948       1.0130
   20      -0.9284       -1.6986       0.7702        -2.0111       1.0826
   22      23.7814        9.7005      14.0809         9.3091      14.4723
   39     271.1755       -0.0063     271.1818        -0.0025     271.1780
   43      32.3037        1.8148      30.4889        -5.1614      37.4651
   44      -1.4046      -40.0252      38.6207       -41.3023      39.8977
 Sum      344.8201      -26.7771     371.5971       -32.9734     377.7935

 Contributions to Isotropic shielding for atom    9 (   213.8021 ppm):
                         Standard Origin              Atomic Origin
 NLMO      Total    Paramagnetic  Diamagnetic   Paramagnetic  Diamagnetic
   10       0.0743       -0.2328       0.3071        -0.9792       1.0535
   11      -0.1803       -0.5622       0.3820        -1.1332       0.9529
   16       5.6803       -9.5112      15.1916        -1.9529       7.6332
   17       0.3943       -0.0967       0.4910        -0.6185       1.0127
   23      -1.3116       -5.7988       4.4871        -8.8296       7.5179
   24      -1.4566       -4.8528       3.3962        -8.8964       7.4398
   25       6.0711       -2.3565       8.4276        -4.9684      11.0395
   26       0.9366       -0.2799       1.2164        -0.0867       1.0233
   27       0.7098       -0.5484       1.2582        -0.3024       1.0122
   28       0.6090       -0.2953       0.9043        -0.4286       1.0376
   29       1.0163       -0.2803       1.2965        -0.0062       1.0224
   30       0.6955       -0.6645       1.3601        -0.3345       1.0301
   31       0.6364       -0.3247       0.9611        -0.3973       1.0338
   40     199.9258       -0.0013     199.9271         0.0020     199.9239
 Sum      213.8009      -25.8054     239.6063       -28.9319     242.7328

 Contributions to Isotropic shielding for atom   10 (   224.1304 ppm):
                         Standard Origin              Atomic Origin
 NLMO      Total    Paramagnetic  Diamagnetic   Paramagnetic  Diamagnetic
   23       4.5342       -9.9701      14.5043        -3.4564       7.9906
   24      -0.4850        0.0755      -0.5605        -1.1649       0.6798
   25       0.3445       -0.0164       0.3608        -0.6625       1.0069
   26       6.4027       -3.5323       9.9350        -4.7266      11.1293
   27       6.7948       -4.7726      11.5674        -4.3189      11.1137
   28       5.8970        3.4965       2.4005        -5.2173      11.1143
   41     200.0737       -0.0031     200.0767         0.0019     200.0718
 Sum      223.5618      -14.7225     238.2843       -19.5447     243.1065

 Contributions to Isotropic shielding for atom   11 (   221.0952 ppm):
                         Standard Origin              Atomic Origin
 NLMO      Total    Paramagnetic  Diamagnetic   Paramagnetic  Diamagnetic
   17      -0.1877       -0.0583      -0.1294        -1.1191       0.9314
   23      -0.5139        0.0727      -0.5866        -1.2181       0.7041
   24       4.1764      -11.3590      15.5354        -3.8490       8.0254
   25       0.3305        0.0470       0.2835        -0.7152       1.0457
   29       6.2591       -3.6776       9.9367        -4.8614      11.1205
   30       5.7025       -5.0755      10.7780        -5.3743      11.0768
   31       4.9232        2.5606       2.3626        -6.1937      11.1169
   42     200.0750       -0.0034     200.0784         0.0021     200.0729
 Sum      220.7652      -17.4935     238.2587       -23.3287     244.0938

 Contributions to Isotropic shielding for atom   12 (    32.7252 ppm):
                         Standard Origin              Atomic Origin
 NLMO      Total    Paramagnetic  Diamagnetic   Paramagnetic  Diamagnetic
    1       1.2945        0.1878       1.1067         0.2755       1.0190
    2      26.3748        0.1770      26.1977         0.4751      25.8997
    3       1.9227        2.3605      -0.4378         0.0774       1.8453
    4       2.0596        0.5234       1.5362         0.2366       1.8230
    6      -0.1343        0.2282      -0.3625        -1.0563       0.9219
 Sum       31.5172        3.4769      28.0403         0.0084      31.5088

 Contributions to Isotropic shielding for atom   13 (    32.4646 ppm):
                         Standard Origin              Atomic Origin
 NLMO      Total    Paramagnetic  Diamagnetic   Paramagnetic  Diamagnetic
    1       1.2381        0.4194       0.8187         0.2138       1.0243
    2       1.8573        2.2188      -0.3616         0.0096       1.8477
    3      26.2952        0.0780      26.2172         0.4454      25.8497
    4       2.0450        0.7204       1.3246         0.2003       1.8448
 Sum       31.4356        3.4366      27.9989         0.8690      30.5666

 Contributions to Isotropic shielding for atom   14 (    33.1758 ppm):
                         Standard Origin              Atomic Origin
 NLMO      Total    Paramagnetic  Diamagnetic   Paramagnetic  Diamagnetic
    1       1.6863       -1.2109       2.8972         0.7901       0.8962
    2       1.9811        0.8751       1.1060         0.1588       1.8223
    3       2.0047        1.1671       0.8376         0.1458       1.8589
    4      26.5044        0.3848      26.1196         0.3637      26.1407
   10      -0.0626       -0.0602      -0.0024        -1.0455       0.9829
 Sum       32.1139        1.1559      30.9580         0.4130      31.7009

 Contributions to Isotropic shielding for atom   15 (    32.3836 ppm):
                         Standard Origin              Atomic Origin
 NLMO      Total    Paramagnetic  Diamagnetic   Paramagnetic  Diamagnetic
    1       0.8059        2.2973      -1.4914        -0.2469       1.0528
    3       0.1937       -0.3204       0.5142        -0.8306       1.0244
    5       1.2172        1.3662      -0.1489         0.1786       1.0386
    6       1.2624        1.2439       0.0185         0.2303       1.0322
    7      26.5126       -0.4191      26.9317         0.5048      26.0078
   19      -0.1185       -0.1752       0.0567        -1.2897       1.1712
   21       0.1342        0.1013       0.0329        -0.9437       1.0779
 Sum       30.0076        4.0939      25.9137        -2.3973      32.4048

 Contributions to Isotropic shielding for atom   16 (    31.4305 ppm):
                         Standard Origin              Atomic Origin
 NLMO      Total    Paramagnetic  Diamagnetic   Paramagnetic  Diamagnetic
    8       1.1218        0.0615       1.0603         0.1835       0.9383
    9       0.6534        0.6310       0.0225        -0.4502       1.1036
   10       0.9508        0.9556      -0.0048        -1.1674       2.1182
   11      26.3632        0.3595      26.0037         0.7596      25.6035
   16      -0.1311       -0.0969      -0.0341        -1.1415       1.0104
   21      -0.0323       -0.7839       0.7516        -1.2109       1.1785
   23      -0.0022       -0.5541       0.5519        -1.0354       1.0332
   27      -0.3990       -1.4862       1.0872        -0.8612       0.4622
 Sum       28.5246       -0.9137      29.4383        -4.9233      33.4480

 Contributions to Isotropic shielding for atom   17 (    32.5932 ppm):
                         Standard Origin              Atomic Origin
 NLMO      Total    Paramagnetic  Diamagnetic   Paramagnetic  Diamagnetic
   12       1.3014        0.3725       0.9289         0.4162       0.8852
   13       1.0817        1.2845      -0.2028         0.0593       1.0225
   14      26.3512        0.0508      26.3004         0.4212      25.9300
   15       2.1154        1.3678       0.7475         0.3621       1.7533
   18       0.0614       -0.5940       0.6553        -1.0664       1.1278
   29      -0.3282       -1.5385       1.2102        -0.8713       0.5431
 Sum       30.5828        0.9432      29.6396        -0.6790      31.2618

 Contributions to Isotropic shielding for atom   18 (    32.9194 ppm):
                         Standard Origin              Atomic Origin
 NLMO      Total    Paramagnetic  Diamagnetic   Paramagnetic  Diamagnetic
   12       1.3454        0.1164       1.2290         0.4520       0.8934
   13       1.1384        1.0355       0.1029         0.1950       0.9434
   14       2.0943        1.4733       0.6210         0.3193       1.7750
   15      26.4043        0.0914      26.3129         0.3937      26.0106
   19       0.0229       -0.7321       0.7550        -1.0671       1.0901
   26      -0.2345       -1.2965       1.0620        -0.9879       0.7534
 Sum       30.7709        0.6880      30.0828        -0.6949      31.4658

 Contributions to Isotropic shielding for atom   19 (    33.1832 ppm):
                         Standard Origin              Atomic Origin
 NLMO      Total    Paramagnetic  Diamagnetic   Paramagnetic  Diamagnetic
    4      -0.4098       -1.0617       0.6520        -0.6509       0.2411
    8       1.4016        0.7428       0.6588         0.5714       0.8303
   10      -0.0380       -0.5410       0.5029        -1.3444       1.3064
   12       1.2034        0.6109       0.5924         0.2603       0.9430
   16       1.1464        1.1223       0.0241         0.0090       1.1375
   17      26.5633        0.1075      26.4559         0.4045      26.1589
   22      -0.0907       -1.0043       0.9136        -0.8592       0.7685
   24      -0.0234       -0.8085       0.7851        -1.0558       1.0323
   30      -0.1502       -1.5326       1.3824        -1.0573       0.9071
 Sum       29.6027       -2.3645      31.9672        -3.7225      33.3251

 Contributions to Isotropic shielding for atom   20 (    32.6734 ppm):
                         Standard Origin              Atomic Origin
 NLMO      Total    Paramagnetic  Diamagnetic   Paramagnetic  Diamagnetic
    1      -0.1730       -0.4167       0.2437        -1.3574       1.1843
    5       1.1771        0.8375       0.3397         0.2586       0.9186
   13       1.3471        0.2367       1.1105         0.3342       1.0129
   14      -0.0170       -0.0839       0.0669        -1.0958       1.0788
   18      26.4282        0.0466      26.3816         0.4671      25.9611
   19       2.0145        2.0433      -0.0288         0.2280       1.7865
 Sum       30.7770        2.6635      28.1135        -1.1652      31.9422

 Contributions to Isotropic shielding for atom   21 (    32.1932 ppm):
                         Standard Origin              Atomic Origin
 NLMO      Total    Paramagnetic  Diamagnetic   Paramagnetic  Diamagnetic
    5       1.0292        1.2361      -0.2069        -0.0142       1.0434
    7      -0.1081       -0.4971       0.3890        -1.2114       1.1033
   13       1.1901        0.6906       0.4995         0.0683       1.1219
   15       0.0029        0.0817      -0.0788        -1.1234       1.1263
   18       1.9946        1.8189       0.1758         0.1944       1.8003
   19      26.4529       -0.1450      26.5978         0.4626      25.9903
 Sum       30.5617        3.1852      27.3765        -1.6238      32.1855

 Contributions to Isotropic shielding for atom   22 (    32.3287 ppm):
                         Standard Origin              Atomic Origin
 NLMO      Total    Paramagnetic  Diamagnetic   Paramagnetic  Diamagnetic
    1      -0.0641       -0.1176       0.0535        -1.0242       0.9601
    2      -0.1237       -1.1323       1.0086        -0.9970       0.8733
    6       1.0146        1.3145      -0.2999         0.1005       0.9141
    9       1.2861        0.5270       0.7591         0.3624       0.9237
   10      -0.2365        0.1743      -0.4108        -1.7064       1.4699
   20      26.1850        0.0935      26.0915         0.5104      25.6746
   21       2.0803        1.7190       0.3613         0.3672       1.7131
 Sum       30.1417        2.5785      27.5632        -2.3872      32.5289

 Contributions to Isotropic shielding for atom   23 (    32.2810 ppm):
                         Standard Origin              Atomic Origin
 NLMO      Total    Paramagnetic  Diamagnetic   Paramagnetic  Diamagnetic
    6       1.1313        0.8260       0.3053         0.0588       1.0724
    9       1.5030        0.2061       1.2969         0.5203       0.9826
   11      -0.0624       -0.1665       0.1041        -1.2402       1.1779
   20       1.8592        1.7199       0.1393         0.0148       1.8444
   21      26.4068        0.0567      26.3501         0.4249      25.9819
 Sum       30.8378        2.6421      28.1957        -0.2214      31.0592

 Contributions to Isotropic shielding for atom   24 (    35.1576 ppm):
                         Standard Origin              Atomic Origin
 NLMO      Total    Paramagnetic  Diamagnetic   Paramagnetic  Diamagnetic
   10       2.1682        1.1705       0.9977         1.5604       0.6077
   22      22.9645       -0.3093      23.2738        -0.2374      23.2019
   43       3.7481        1.7430       2.0052         1.7726       1.9756
   44       5.2297        2.1588       3.0709         2.0772       3.1525
 Sum       34.1105        4.7629      29.3476         5.1729      28.9377

 Contributions to Isotropic shielding for atom   25 (    32.0309 ppm):
                         Standard Origin              Atomic Origin
 NLMO      Total    Paramagnetic  Diamagnetic   Paramagnetic  Diamagnetic
    8      -0.1412        0.1538      -0.2949        -1.1062       0.9650
   10       0.0537       -0.2696       0.3233        -1.3136       1.3673
   16       1.6737       -0.2389       1.9126         0.6853       0.9883
   23       0.9321        1.5489      -0.6169        -0.0867       1.0187
   24       0.8864        1.7448      -0.8584        -0.1147       1.0012
   25      26.2666       -0.0144      26.2810         0.4216      25.8450
 Sum       29.6713        2.9246      26.7467        -1.5142      31.1854

 Contributions to Isotropic shielding for atom   26 (    32.7990 ppm):
                         Standard Origin              Atomic Origin
 NLMO      Total    Paramagnetic  Diamagnetic   Paramagnetic  Diamagnetic
   12      -0.0814        0.1413      -0.2227        -1.0596       0.9783
   23       1.4869       -0.6013       2.0882         0.5579       0.9291
   24      -0.1406        0.2943      -0.4349        -1.0293       0.8887
   26      26.3195        0.2263      26.0932         0.3971      25.9224
   27       2.0980        0.5966       1.5013         0.2722       1.8257
   28       1.9659        2.2143      -0.2484         0.1172       1.8488
 Sum       31.6483        2.8716      28.7768        -0.7446      32.3930

 Contributions to Isotropic shielding for atom   27 (    32.5422 ppm):
                         Standard Origin              Atomic Origin
 NLMO      Total    Paramagnetic  Diamagnetic   Paramagnetic  Diamagnetic
   23       1.5401       -0.9046       2.4447         0.5287       1.0114
   26       2.0696        0.6481       1.4215         0.2344       1.8352
   27      26.3257        0.2839      26.0417         0.3717      25.9539
   28       1.9377        1.9423      -0.0046         0.0748       1.8628
 Sum       31.8730        1.9696      29.9034         1.2097      30.6633

 Contributions to Isotropic shielding for atom   28 (    32.5099 ppm):
                         Standard Origin              Atomic Origin
 NLMO      Total    Paramagnetic  Diamagnetic   Paramagnetic  Diamagnetic
   23       1.2207        0.6602       0.5606         0.1825       1.0382
   24      -0.1548        0.6865      -0.8413        -1.1098       0.9550
   26       1.9727        1.8666       0.1061         0.1121       1.8606
   27       2.0291        1.5941       0.4350         0.1626       1.8665
   28      26.2906       -0.0288      26.3194         0.4014      25.8892
 Sum       31.3583        4.7785      26.5798        -0.2512      31.6095

 Contributions to Isotropic shielding for atom   29 (    32.5572 ppm):
                         Standard Origin              Atomic Origin
 NLMO      Total    Paramagnetic  Diamagnetic   Paramagnetic  Diamagnetic
   12      -0.0807        0.2055      -0.2862        -1.0512       0.9705
   23      -0.1455        0.3277      -0.4732        -1.0288       0.8832
   24       1.4840       -0.8471       2.3310         0.5673       0.9167
   29      26.3592        0.2538      26.1055         0.4068      25.9524
   30       2.0231        0.6678       1.3552         0.2099       1.8132
   31       1.8913        2.1545      -0.2632         0.0490       1.8422
 Sum       31.5313        2.7623      28.7690        -0.8469      32.3782

 Contributions to Isotropic shielding for atom   30 (    32.5845 ppm):
                         Standard Origin              Atomic Origin
 NLMO      Total    Paramagnetic  Diamagnetic   Paramagnetic  Diamagnetic
   24       1.6180       -0.9187       2.5367         0.6090       1.0089
   29       2.0430        0.7379       1.3051         0.2073       1.8357
   30      26.3762        0.3095      26.0667         0.4116      25.9646
   31       1.9103        2.0418      -0.1315         0.0614       1.8489
 Sum       31.9474        2.1705      29.7769         1.2893      30.6581

 Contributions to Isotropic shielding for atom   31 (    32.3943 ppm):
                         Standard Origin              Atomic Origin
 NLMO      Total    Paramagnetic  Diamagnetic   Paramagnetic  Diamagnetic
   23      -0.1703        0.7152      -0.8855        -1.1335       0.9631
   24       1.2125        0.4231       0.7893         0.1850       1.0275
   29       1.9484        1.8372       0.1112         0.0950       1.8534
   30       1.9499        1.6690       0.2809         0.1055       1.8444
   31      26.3477        0.0188      26.3289         0.4477      25.9000
 Sum       31.2882        4.6634      26.6248        -0.3002      31.5884
 
 1\1\GINC-COMPUTE-10-5\SP\RHF\STO-3G\C10H20O1\YTSAI.IQUIR\03-Aug-2021\0
 \\# rhf/STO-3G nmr pop=nbo\\comment\\0,1\C,0,2.55498374,0.086976991,-1
 .652183442\C,0,1.088200448,0.054904337,-2.091274555\C,0,0.057779334,-1
 .372191137,-0.196174755\C,0,-0.658870369,1.027050866,-0.452561228\C,0,
 -0.111083777,-0.016627394,0.527051683\C,0,0.323771511,1.296681328,-1.5
 97181577\C,0,0.391231179,-1.252301706,-1.690202826\O,0,1.060400515,-2.
 143884797,0.466235534\C,0,-0.944705577,-0.163468994,1.834150006\C,0,-2
 .443113501,-0.37948569,1.599263118\C,0,-0.747534646,1.044387677,2.7586
 59973\H,0,3.08226979,-0.811515324,-1.989536569\H,0,3.064299798,0.95225
 0136,-2.090803013\H,0,2.664332681,0.159033993,-0.567168147\H,0,1.10407
 098,0.092508005,-3.18919639\H,0,-0.858623395,-1.965703982,-0.119963096
 \H,0,-0.873106031,1.97499393,0.052158156\H,0,-1.608566937,0.678228918,
 -0.8775668\H,0,0.885414014,0.317085589,0.848080706\H,0,1.030542902,2.0
 77494595,-1.28918248\H,0,-0.243041899,1.725801549,-2.433453992\H,0,0.9
 85063434,-2.112753288,-2.021961412\H,0,-0.554330637,-1.295305475,-2.24
 8195774\H,0,1.907161177,-1.674990698,0.386186147\H,0,-0.56551241,-1.03
 9860406,2.376596792\H,0,-2.911447544,0.496772112,1.139394679\H,0,-2.63
 4309298,-1.244153054,0.958176818\H,0,-2.954728792,-0.561461177,2.55106
 0314\H,0,-1.155183993,1.962302264,2.324183023\H,0,0.314957671,1.207478
 107,2.967397317\H,0,-1.250320368,0.879752725,3.718011791\\Version=EM64
 L-G09RevC.01\State=1-A\HF=-459.6098978\RMSD=9.543e-09\Dipole=0.0606364
 ,0.5207245,-0.2964524\Quadrupole=2.0492238,-2.7881971,0.7389733,0.7797
 563,-0.1837055,1.1646555\PG=C01 [X(C10H20O1)]\\@


 THERE'S A SUCKER BORN EVERY MINUTE

              -- PHINEAS TAYLOR (P.T.) BARNUM
 Job cpu time:  0 days  0 hours  0 minutes 24.1 seconds.
 File lengths (MBytes):  RWF=      5 Int=      0 D2E=      0 Chk=      1 Scr=      1
 Normal termination of Gaussian 09 at Tue Aug  3 16:33:42 2021.
