 Entering Gaussian System, Link 0=g09
 Input=/home/ytsai.iquir/menthol/01_menthol_M0031_MMFF_NMR_rhf_STO-3G_nbo.gjc
 Output=/home/ytsai.iquir/menthol/01_menthol_M0031_MMFF_NMR_rhf_STO-3G_nbo.log
 Initial command:
 /share/apps/Gaussian09/EM64T.SSE4.2-enabled/g09/l1.exe /tmp/Gau-11385.inp -scrdir=/tmp/
 Entering Link 1 = /share/apps/Gaussian09/EM64T.SSE4.2-enabled/g09/l1.exe PID=     11387.
  
 Copyright (c) 1988,1990,1992,1993,1995,1998,2003,2009,2011,
            Gaussian, Inc.  All Rights Reserved.
  
 This is part of the Gaussian(R) 09 program.  It is based on
 the Gaussian(R) 03 system (copyright 2003, Gaussian, Inc.),
 the Gaussian(R) 98 system (copyright 1998, Gaussian, Inc.),
 the Gaussian(R) 94 system (copyright 1995, Gaussian, Inc.),
 the Gaussian 92(TM) system (copyright 1992, Gaussian, Inc.),
 the Gaussian 90(TM) system (copyright 1990, Gaussian, Inc.),
 the Gaussian 88(TM) system (copyright 1988, Gaussian, Inc.),
 the Gaussian 86(TM) system (copyright 1986, Carnegie Mellon
 University), and the Gaussian 82(TM) system (copyright 1983,
 Carnegie Mellon University). Gaussian is a federally registered
 trademark of Gaussian, Inc.
  
 This software contains proprietary and confidential information,
 including trade secrets, belonging to Gaussian, Inc.
  
 This software is provided under written license and may be
 used, copied, transmitted, or stored only in accord with that
 written license.
  
 The following legend is applicable only to US Government
 contracts under FAR:
  
                    RESTRICTED RIGHTS LEGEND
  
 Use, reproduction and disclosure by the US Government is
 subject to restrictions as set forth in subparagraphs (a)
 and (c) of the Commercial Computer Software - Restricted
 Rights clause in FAR 52.227-19.
  
 Gaussian, Inc.
 340 Quinnipiac St., Bldg. 40, Wallingford CT 06492
  
  
 ---------------------------------------------------------------
 Warning -- This program may not be used in any manner that
 competes with the business of Gaussian, Inc. or will provide
 assistance to any competitor of Gaussian, Inc.  The licensee
 of this program is prohibited from giving any competitor of
 Gaussian, Inc. access to this program.  By using this program,
 the user acknowledges that Gaussian, Inc. is engaged in the
 business of creating and licensing software in the field of
 computational chemistry and represents and warrants to the
 licensee that it is not a competitor of Gaussian, Inc. and that
 it will not use this program in any manner prohibited above.
 ---------------------------------------------------------------
  

 Cite this work as:
 Gaussian 09, Revision C.01,
 M. J. Frisch, G. W. Trucks, H. B. Schlegel, G. E. Scuseria, 
 M. A. Robb, J. R. Cheeseman, G. Scalmani, V. Barone, B. Mennucci, 
 G. A. Petersson, H. Nakatsuji, M. Caricato, X. Li, H. P. Hratchian, 
 A. F. Izmaylov, J. Bloino, G. Zheng, J. L. Sonnenberg, M. Hada, 
 M. Ehara, K. Toyota, R. Fukuda, J. Hasegawa, M. Ishida, T. Nakajima, 
 Y. Honda, O. Kitao, H. Nakai, T. Vreven, J. A. Montgomery, Jr., 
 J. E. Peralta, F. Ogliaro, M. Bearpark, J. J. Heyd, E. Brothers, 
 K. N. Kudin, V. N. Staroverov, T. Keith, R. Kobayashi, J. Normand, 
 K. Raghavachari, A. Rendell, J. C. Burant, S. S. Iyengar, J. Tomasi, 
 M. Cossi, N. Rega, J. M. Millam, M. Klene, J. E. Knox, J. B. Cross, 
 V. Bakken, C. Adamo, J. Jaramillo, R. Gomperts, R. E. Stratmann, 
 O. Yazyev, A. J. Austin, R. Cammi, C. Pomelli, J. W. Ochterski, 
 R. L. Martin, K. Morokuma, V. G. Zakrzewski, G. A. Voth, 
 P. Salvador, J. J. Dannenberg, S. Dapprich, A. D. Daniels, 
 O. Farkas, J. B. Foresman, J. V. Ortiz, J. Cioslowski, 
 and D. J. Fox, Gaussian, Inc., Wallingford CT, 2010.
 
 ******************************************
 Gaussian 09:  EM64L-G09RevC.01 23-Sep-2011
                24-May-2020 
 ******************************************
 %nprocshared=4
 Will use up to    4 processors via shared memory.
 ------------------------
 # rhf/STO-3G nmr pop=nbo
 ------------------------
 1/38=1/1;
 2/12=2,17=6,18=5,40=1/2;
 3/6=3,11=1,16=1,25=1,30=1,116=1/1,2,8,3;
 4//1;
 5/5=2,38=5/2;
 8/6=1,10=90,11=11/1;
 10/13=100,45=16/2;
 6/7=2,8=2,9=2,10=2,28=1,64=1/1,7;
 99/9=1/99;
 -------
 comment
 -------
 Charge =  0 Multiplicity = 1
 Symbolic Z-Matrix:
 6                     2.98725   0.55027  -1.65774 
 6                     1.62546  -0.13506  -1.53423 
 6                     0.25805  -1.3671    0.20779 
 6                     0.15298   1.19057   0.07251 
 6                    -0.25255  -0.06762   0.87341 
 6                     0.48847   0.89048  -1.38648 
 6                     1.64759  -1.15931  -0.38961 
 8                     0.31595  -2.39575   1.19389 
 6                    -1.77156  -0.15392   1.21178 
 6                    -2.68895  -0.0823   -0.01241 
 6                    -2.18265   0.92197   2.22504 
 1                     3.00795   1.22019  -2.52382 
 1                     3.21884   1.14295  -0.76645 
 1                     3.7832   -0.19029  -1.79005 
 1                     1.45214  -0.67567  -2.47442 
 1                    -0.42573  -1.70811  -0.57633 
 1                     1.04116   1.63029   0.54553 
 1                    -0.61691   1.96684   0.11688 
 1                     0.256     0.00816   1.84684 
 1                     0.73639   1.82104  -1.91067 
 1                    -0.40945   0.49713  -1.87971 
 1                     2.33428  -0.84445   0.40808 
 1                     2.05253  -2.11209  -0.7538 
 1                     0.63248  -3.20419   0.75598 
 1                    -1.95209  -1.12222   1.69742 
 1                    -2.61314   0.88231  -0.52365 
 1                    -2.4615   -0.87038  -0.73525 
 1                    -3.73485  -0.21182   0.28782 
 1                    -2.10029   1.9311    1.81044 
 1                    -1.55854   0.87036   3.12334 
 1                    -3.22251   0.77665   2.53788 
 
                          Input orientation:                          
 ---------------------------------------------------------------------
 Center     Atomic      Atomic             Coordinates (Angstroms)
 Number     Number       Type             X           Y           Z
 ---------------------------------------------------------------------
      1          6           0        2.987247    0.550267   -1.657741
      2          6           0        1.625464   -0.135062   -1.534231
      3          6           0        0.258052   -1.367104    0.207793
      4          6           0        0.152984    1.190570    0.072513
      5          6           0       -0.252554   -0.067621    0.873413
      6          6           0        0.488472    0.890484   -1.386481
      7          6           0        1.647591   -1.159315   -0.389614
      8          8           0        0.315949   -2.395755    1.193886
      9          6           0       -1.771557   -0.153919    1.211777
     10          6           0       -2.688952   -0.082299   -0.012411
     11          6           0       -2.182649    0.921970    2.225041
     12          1           0        3.007946    1.220193   -2.523818
     13          1           0        3.218835    1.142950   -0.766454
     14          1           0        3.783199   -0.190293   -1.790051
     15          1           0        1.452137   -0.675674   -2.474424
     16          1           0       -0.425727   -1.708106   -0.576326
     17          1           0        1.041158    1.630290    0.545532
     18          1           0       -0.616914    1.966840    0.116876
     19          1           0        0.256000    0.008158    1.846845
     20          1           0        0.736391    1.821035   -1.910667
     21          1           0       -0.409453    0.497128   -1.879706
     22          1           0        2.334283   -0.844450    0.408078
     23          1           0        2.052529   -2.112091   -0.753800
     24          1           0        0.632478   -3.204187    0.755979
     25          1           0       -1.952089   -1.122222    1.697418
     26          1           0       -2.613139    0.882308   -0.523647
     27          1           0       -2.461504   -0.870384   -0.735254
     28          1           0       -3.734845   -0.211822    0.287821
     29          1           0       -2.100285    1.931100    1.810438
     30          1           0       -1.558536    0.870360    3.123335
     31          1           0       -3.222513    0.776648    2.537880
 ---------------------------------------------------------------------
                    Distance matrix (angstroms):
                    1          2          3          4          5
     1  C    0.000000
     2  C    1.529505   0.000000
     3  C    3.821654   2.534244   0.000000
     4  C    3.381836   2.550907   2.563404   0.000000
     5  C    4.157503   3.054218   1.546746   1.545622   0.000000
     6  C    2.536377   1.538287   2.773357   1.526849   2.564021
     7  C    2.515054   1.536142   1.526725   2.823008   2.529344
     8  O    4.893532   3.777325   1.426133   3.761085   2.417872
     9  C    5.601448   4.368142   2.568874   2.609488   1.558624
    10  C    5.943609   4.575249   3.222429   3.115126   2.592477
    11  C    6.476263   5.454463   3.907195   3.187585   2.555672
    12  H    1.095134   2.174225   4.660228   3.859096   4.881649
    13  H    1.095125   2.182116   4.001970   3.178927   4.025566
    14  H    1.095206   2.173549   4.219351   4.307481   4.836981
    15  H    2.127549   1.098301   3.016323   3.414317   3.805747
    16  H    4.232978   2.756707   1.094842   3.026256   2.196116
    17  H    3.131792   2.789855   3.116359   1.098159   2.159652
    18  H    4.259803   3.488897   3.448045   1.094215   2.200940
    19  H    4.476127   3.650701   2.139589   2.134704   1.100881
    20  H    2.597148   2.181392   3.857579   2.161216   3.506584
    21  H    3.404360   2.158681   2.877252   2.146708   2.814821
    22  H    2.576665   2.185914   2.150353   3.001996   2.740753
    23  H    2.962931   2.167972   2.167906   3.898543   3.484406
    24  H    5.046475   3.956085   1.953350   4.473358   3.261152
    25  H    6.200915   4.921069   2.676504   3.524295   2.163235
    26  H    5.723700   4.474603   3.720026   2.846378   2.902844
    27  H    5.705973   4.228755   2.920968   3.425722   2.848104
    28  H    7.039355   5.662039   4.157441   4.138632   3.534129
    29  H    6.310147   5.416368   4.359859   2.940406   2.878718
    30  H    6.604945   5.730764   4.099588   3.512741   2.765421
    31  H    7.497707   6.396576   4.705243   4.200399   3.507692
                    6          7          8          9         10
     6  C    0.000000
     7  C    2.557143   0.000000
     8  O    4.181797   2.410296   0.000000
     9  C    3.598535   3.907153   3.063304   0.000000
    10  C    3.595887   4.484178   3.979531   1.531463   0.000000
    11  C    4.492101   5.083198   4.279436   1.534027   2.504215
    12  H    2.783881   3.473824   5.843223   6.219847   6.360684
    13  H    2.811238   2.812693   4.979168   5.522615   6.080441
    14  H    3.490871   2.731492   5.078362   6.314080   6.712705
    15  H    2.136615   2.149080   4.207862   4.924684   4.854094
    16  H    2.871373   2.152831   2.038773   2.724714   2.843139
    17  H    2.141366   3.004023   4.141899   3.396859   4.142220
    18  H    2.154183   3.893245   4.589381   2.651344   2.917023
    19  H    3.359604   2.881192   2.491736   2.130860   3.483929
    20  H    1.096430   3.467906   5.253222   4.465411   4.354197
    21  H    1.097391   3.032426   4.282750   3.440415   3.003105
    22  H    3.104426   1.098635   2.664154   4.240364   5.098096
    23  H    3.444129   1.097446   2.624816   4.724570   5.210697
    24  H    4.623549   2.554278   0.972376   3.910405   4.622608
    25  H    4.417891   4.161102   2.649420   1.098203   2.132586
    26  H    3.219400   4.726521   4.719658   2.189457   1.094338
    27  H    3.496729   4.133716   3.709796   2.186385   1.093304
    28  H    4.674909   5.507021   4.690358   2.170610   1.095814
    29  H    4.243211   5.332679   4.993996   2.194029   2.779043
    30  H    4.952685   5.171039   4.231309   2.179124   3.466743
    31  H    5.402313   6.003007   4.938742   2.174806   2.743440
                   11         12         13         14         15
    11  C    0.000000
    12  H    7.041511   0.000000
    13  H    6.178503   1.771658   0.000000
    14  H    7.276636   1.768871   1.773075   0.000000
    15  H    6.152163   2.453017   3.057086   2.477461   0.000000
    16  H    4.225132   4.915056   4.631145   4.635940   2.862703
    17  H    3.703431   3.668425   2.588645   4.035871   3.821846
    18  H    2.826241   4.546467   4.021448   5.258383   4.240129
    19  H    2.631557   5.305180   4.110411   5.070259   4.535608
    20  H    5.141322   2.428359   2.816302   3.652812   2.657757
    21  H    4.491510   3.551945   3.849791   4.249578   2.279182
    22  H    5.179215   3.648641   2.472188   2.712756   3.019186
    23  H    6.001312   3.892288   3.457704   2.786098   2.320413
    24  H    5.206558   5.997921   5.282484   5.049046   4.183387
    25  H    2.123738   6.921538   6.159555   6.776759   5.403002
    26  H    2.782477   5.975905   5.842843   6.608131   4.770672
    27  H    3.471836   6.122447   6.026669   6.369571   4.287099
    28  H    2.729033   7.444543   7.162442   7.799937   5.894909
    29  H    1.094085   6.736853   5.962767   7.216593   6.146139
    30  H    1.095040   7.270865   6.166688   7.334881   6.541352
    31  H    1.095585   8.039661   7.248708   8.291319   7.006054
                   16         17         18         19         20
    16  H    0.000000
    17  H    3.815129   0.000000
    18  H    3.744638   1.745342   0.000000
    19  H    3.046650   2.222881   2.755214   0.000000
    20  H    3.947888   2.482374   2.442053   4.199547   0.000000
    21  H    2.561664   3.044684   2.487856   3.816949   1.751184
    22  H    3.054932   2.795604   4.086284   2.667631   3.877454
    23  H    2.517231   4.088587   4.951937   3.806091   4.305815
    24  H    2.265633   4.856281   5.358073   3.413339   5.689873
    25  H    2.800528   4.226427   3.717944   2.485104   5.376705
    26  H    3.390839   3.880271   2.360379   3.822999   3.744914
    27  H    2.207131   4.490259   3.489767   3.850182   4.341873
    28  H    3.733080   5.125427   3.807530   4.290197   5.381246
    29  H    4.663112   3.399874   2.251626   3.041563   4.680327
    30  H    4.649650   3.739114   3.335823   2.380201   5.613524
    31  H    4.867679   4.782996   3.750595   3.628796   6.045927
                   21         22         23         24         25
    21  H    0.000000
    22  H    3.816002   0.000000
    23  H    3.759926   1.742486   0.000000
    24  H    4.661779   2.930108   2.342787   0.000000
    25  H    4.218748   4.484701   4.798466   3.449764   0.000000
    26  H    2.616007   5.322291   5.548680   5.373165   3.064026
    27  H    2.718598   4.930259   4.681739   4.152485   2.498164
    28  H    4.032248   6.103196   6.179782   5.314785   2.448268
    29  H    4.304921   5.416243   6.337868   5.911941   3.059004
    30  H    5.146854   5.046508   6.080048   5.196812   2.481634
    31  H    5.244665   6.167820   6.856095   5.820926   2.434350
                   26         27         28         29         30
    26  H    0.000000
    27  H    1.771920   0.000000
    28  H    1.764603   1.761189   0.000000
    29  H    2.609777   3.802544   3.095523   0.000000
    30  H    3.796420   4.328308   3.734646   1.772670   0.000000
    31  H    3.123371   3.742360   2.510443   1.766728   1.766454
                   31
    31  H    0.000000
 Stoichiometry    C10H20O
 Framework group  C1[X(C10H20O)]
 Deg. of freedom    87
 Full point group                 C1      NOp   1
 Largest Abelian subgroup         C1      NOp   1
 Largest concise Abelian subgroup C1      NOp   1
                         Standard orientation:                         
 ---------------------------------------------------------------------
 Center     Atomic      Atomic             Coordinates (Angstroms)
 Number     Number       Type             X           Y           Z
 ---------------------------------------------------------------------
      1          6           0        3.392511   -0.715840   -0.398959
      2          6           0        2.193604   -0.287935    0.448923
      3          6           0        0.151567    1.200454    0.256122
      4          6           0        0.053484   -1.221219   -0.578692
      5          6           0       -0.674304    0.140605   -0.510089
      6          6           0        1.118746   -1.387087    0.502499
      7          6           0        1.639547    1.054114   -0.052731
      8          8           0       -0.288213    2.498375   -0.138659
      9          6           0       -2.138997    0.062356    0.017034
     10          6           0       -2.272351   -0.591289    1.395564
     11          6           0       -3.057184   -0.653720   -0.981668
     12          1           0        3.846806   -1.627747    0.002738
     13          1           0        3.099179   -0.912757   -1.435529
     14          1           0        4.160943    0.064511   -0.405287
     15          1           0        2.560572   -0.145318    1.474233
     16          1           0       -0.003255    1.120791    1.337030
     17          1           0        0.543035   -1.302805   -1.558303
     18          1           0       -0.647481   -2.060073   -0.530960
     19          1           0       -0.759851    0.498188   -1.547758
     20          1           0        1.576863   -2.380187    0.424782
     21          1           0        0.630146   -1.356936    1.484654
     22          1           0        1.790488    1.163059   -1.135481
     23          1           0        2.205534    1.879400    0.397767
     24          1           0        0.237207    3.149314    0.357049
     25          1           0       -2.518389    1.089119    0.105750
     26          1           0       -1.968145   -1.642383    1.380263
     27          1           0       -1.672519   -0.073396    2.148758
     28          1           0       -3.314196   -0.557406    1.733528
     29          1           0       -2.799903   -1.711337   -1.092460
     30          1           0       -3.000978   -0.183815   -1.969161
     31          1           0       -4.100082   -0.599849   -0.650356
 ---------------------------------------------------------------------
 Rotational constants (GHZ):      1.6294531      0.7437506      0.6107034
 Standard basis: STO-3G (5D, 7F)
 There are    75 symmetry adapted basis functions of A   symmetry.
 Integral buffers will be    131072 words long.
 Raffenetti 1 integral format.
 Two-electron integral symmetry is turned on.
    75 basis functions,   225 primitive gaussians,    75 cartesian basis functions
    44 alpha electrons       44 beta electrons
       nuclear repulsion energy       693.2457711101 Hartrees.
 NAtoms=   31 NActive=   31 NUniq=   31 SFac= 1.00D+00 NAtFMM=   60 NAOKFM=F Big=F
 One-electron integrals computed using PRISM.
 NBasis=    75 RedAO= T  NBF=    75
 NBsUse=    75 1.00D-06 NBFU=    75
 Harris functional with IExCor=  205 diagonalized for initial guess.
 ExpMin= 1.69D-01 ExpMax= 1.31D+02 ExpMxC= 1.31D+02 IAcc=1 IRadAn=         1 AccDes= 0.00D+00
 HarFok:  IExCor=  205 AccDes= 0.00D+00 IRadAn=         1 IDoV= 1
 ScaDFX=  1.000000  1.000000  1.000000  1.000000
 FoFCou: FMM=F IPFlag=           0 FMFlag=      100000 FMFlg1=           0
         NFxFlg=           0 DoJE=T BraDBF=F KetDBF=T FulRan=T
         Omega=  0.000000  0.000000  1.000000  0.000000  0.000000 ICntrl=     500 IOpCl=  0
         NMat0=    1 NMatS0=    1 NMatT0=    0 NMatD0=    1 NMtDS0=    0 NMtDT0=    0
         I1Cent=           4 NGrid=           0.
 Petite list used in FoFCou.
 Initial guess orbital symmetries:
       Occupied  (A) (A) (A) (A) (A) (A) (A) (A) (A) (A) (A) (A)
                 (A) (A) (A) (A) (A) (A) (A) (A) (A) (A) (A) (A)
                 (A) (A) (A) (A) (A) (A) (A) (A) (A) (A) (A) (A)
                 (A) (A) (A) (A) (A) (A) (A) (A)
       Virtual   (A) (A) (A) (A) (A) (A) (A) (A) (A) (A) (A) (A)
                 (A) (A) (A) (A) (A) (A) (A) (A) (A) (A) (A) (A)
                 (A) (A) (A) (A) (A) (A) (A)
 The electronic state of the initial guess is 1-A.
 Requested convergence on RMS density matrix=1.00D-08 within 128 cycles.
 Requested convergence on MAX density matrix=1.00D-06.
 Requested convergence on             energy=1.00D-06.
 No special actions if energy rises.
 Keep R1 ints in memory in canonical form, NReq=4898789.
 SCF Done:  E(RHF) =  -459.612327747     A.U. after   10 cycles
             Convg  =    0.7331D-08             -V/T =  2.0089
 Range of M.O.s used for correlation:     1    75
 NBasis=    75 NAE=    44 NBE=    44 NFC=     0 NFV=     0
 NROrb=     75 NOA=    44 NOB=    44 NVA=    31 NVB=    31
          Differentiating once with respect to magnetic field using GIAOs.
          Electric field/nuclear overlap derivatives assumed to be zero.
          Keep R3 ints in memory in canonical form, NReq=4863575.
 FoFCou: FMM=F IPFlag=           0 FMFlag=           0 FMFlg1=           0
         NFxFlg=           0 DoJE=F BraDBF=F KetDBF=T FulRan=T
         Omega=  0.000000  0.000000  1.000000  0.000000  0.000000 ICntrl=    6100 IOpCl=  0
         NMat0=    1 NMatS0=    1 NMatT0=    0 NMatD0=    1 NMtDS0=    0 NMtDT0=    0
         I1Cent=           7 NGrid=          31.
 Symmetry not used in FoFCou.
          There are     3 degrees of freedom in the 1st order CPHF.  IDoFFX=0.
      3 vectors produced by pass  0 Test12= 4.55D-14 3.33D-08 XBig12= 6.97D+00 3.76D-01.
 AX will form     3 AO Fock derivatives at one time.
      3 vectors produced by pass  1 Test12= 4.55D-14 3.33D-08 XBig12= 1.01D-02 1.60D-02.
      3 vectors produced by pass  2 Test12= 4.55D-14 3.33D-08 XBig12= 7.99D-05 2.51D-03.
      3 vectors produced by pass  3 Test12= 4.55D-14 3.33D-08 XBig12= 1.54D-06 3.95D-04.
      3 vectors produced by pass  4 Test12= 4.55D-14 3.33D-08 XBig12= 1.72D-08 2.24D-05.
      3 vectors produced by pass  5 Test12= 4.55D-14 3.33D-08 XBig12= 1.96D-10 1.85D-06.
      3 vectors produced by pass  6 Test12= 4.55D-14 3.33D-08 XBig12= 1.87D-12 1.55D-07.
 Inverted reduced A of dimension    21 with in-core refinement.
 Calculating GIAO nuclear magnetic shielding tensors.
 SCF GIAO Magnetic shielding tensor (ppm):
      1  C    Isotropic =   221.0518   Anisotropy =    27.0373
   XX=   230.6355   YX=    -9.1967   ZX=    -8.8764
   XY=    -6.7571   YY=   217.7645   ZY=     1.0725
   XZ=   -13.9428   YZ=    -0.4936   ZZ=   214.7555
   Eigenvalues:   207.4165   216.6623   239.0767
      2  C    Isotropic =   216.4958   Anisotropy =     9.5194
   XX=   222.8082   YX=     0.5628   ZX=     0.7469
   XY=    -1.0268   YY=   219.7916   ZY=    -1.0573
   XZ=    -0.0006   YZ=    -2.1797   ZZ=   206.8878
   Eigenvalues:   206.6806   219.9648   222.8421
      3  C    Isotropic =   189.2196   Anisotropy =    42.7770
   XX=   183.4327   YX=    -7.9387   ZX=     4.4767
   XY=    -6.0367   YY=   214.2645   ZY=    -8.5158
   XZ=     3.3839   YZ=    -9.5815   ZZ=   169.9616
   Eigenvalues:   167.7497   182.1715   217.7376
      4  C    Isotropic =   220.5923   Anisotropy =    15.8352
   XX=   223.6263   YX=    -7.1148   ZX=     4.7877
   XY=    -5.9088   YY=   224.6535   ZY=     1.0350
   XZ=     5.5321   YZ=     0.9349   ZZ=   213.4970
   Eigenvalues:   210.3707   220.2570   231.1491
      5  C    Isotropic =   209.4776   Anisotropy =    17.3143
   XX=   218.8616   YX=     7.0777   ZX=     1.1618
   XY=     3.1003   YY=   207.9485   ZY=     2.4796
   XZ=     1.1845   YZ=     0.9736   ZZ=   201.6227
   Eigenvalues:   201.1810   206.2313   221.0204
      6  C    Isotropic =   217.6018   Anisotropy =    15.0549
   XX=   225.2026   YX=     4.1545   ZX=     1.7140
   XY=     4.3138   YY=   220.0580   ZY=    -2.3203
   XZ=     2.8986   YZ=    -1.7246   ZZ=   207.5448
   Eigenvalues:   206.7302   218.4368   227.6384
      7  C    Isotropic =   214.3852   Anisotropy =    23.5882
   XX=   221.8846   YX=   -10.3252   ZX=    -3.3238
   XY=    -9.3956   YY=   217.7817   ZY=    -1.1367
   XZ=    -2.8291   YZ=     0.9671   ZZ=   203.4894
   Eigenvalues:   202.7173   210.3276   230.1107
      8  O    Isotropic =   354.4859   Anisotropy =    89.9915
   XX=   357.5107   YX=    41.7489   ZX=    16.9780
   XY=    21.4702   YY=   362.8773   ZY=    25.0487
   XZ=    30.7106   YZ=    39.9811   ZZ=   343.0697
   Eigenvalues:   318.9761   330.0014   414.4802
      9  C    Isotropic =   213.7343   Anisotropy =    15.6360
   XX=   223.6491   YX=     1.5339   ZX=    -0.4731
   XY=     3.7348   YY=   205.2042   ZY=     0.6136
   XZ=    -2.3010   YZ=     0.6611   ZZ=   212.3495
   Eigenvalues:   204.7451   212.2994   224.1583
     10  C    Isotropic =   224.4348   Anisotropy =    19.7333
   XX=   220.5970   YX=     0.7633   ZX=    -2.5491
   XY=     0.2766   YY=   218.0349   ZY=    -8.4656
   XZ=    -1.1999   YZ=    -5.9763   ZZ=   234.6724
   Eigenvalues:   215.3324   220.3815   237.5903
     11  C    Isotropic =   221.1817   Anisotropy =    27.3173
   XX=   224.7506   YX=     6.7207   ZX=    10.7207
   XY=    10.3456   YY=   211.7359   ZY=     6.4831
   XZ=     9.5778   YZ=     3.6169   ZZ=   227.0587
   Eigenvalues:   207.5119   216.6400   239.3932
     12  H    Isotropic =    32.5641   Anisotropy =    14.1903
   XX=    35.0470   YX=    -6.7365   ZX=     0.5642
   XY=    -6.5185   YY=    35.1320   ZY=    -2.6052
   XZ=     0.5737   YZ=    -2.1916   ZZ=    27.5133
   Eigenvalues:    26.4153    29.2527    42.0243
     13  H    Isotropic =    32.5487   Anisotropy =    10.1841
   XX=    31.9389   YX=    -0.9577   ZX=    -1.8787
   XY=    -1.1141   YY=    27.7619   ZY=     3.0548
   XZ=    -1.7130   YZ=     3.0567   ZZ=    37.9455
   Eigenvalues:    26.8585    31.4495    39.3381
     14  H    Isotropic =    32.4644   Anisotropy =    13.8876
   XX=    39.2599   YX=     4.5498   ZX=    -2.1547
   XY=     4.6479   YY=    31.5403   ZY=    -0.1119
   XZ=    -2.3786   YZ=    -0.5478   ZZ=    26.5931
   Eigenvalues:    26.1442    29.5262    41.7228
     15  H    Isotropic =    32.4804   Anisotropy =    13.4362
   XX=    31.5848   YX=     0.5965   ZX=     5.3779
   XY=     0.5529   YY=    27.5433   ZY=     1.3425
   XZ=     5.3477   YZ=     1.4104   ZZ=    38.3132
   Eigenvalues:    27.3640    28.6394    41.4379
     16  H    Isotropic =    32.0991   Anisotropy =     6.4423
   XX=    30.7713   YX=     0.3832   ZX=    -1.4553
   XY=     1.0425   YY=    29.9176   ZY=     0.7016
   XZ=    -2.4445   YZ=     1.4636   ZZ=    35.6085
   Eigenvalues:    28.9188    30.9846    36.3940
     17  H    Isotropic =    32.4741   Anisotropy =    12.3888
   XX=    31.3317   YX=    -1.7874   ZX=    -3.2288
   XY=    -1.6795   YY=    28.1145   ZY=     4.1842
   XZ=    -2.7873   YZ=     4.1029   ZZ=    37.9763
   Eigenvalues:    26.5131    30.1760    40.7334
     18  H    Isotropic =    32.5528   Anisotropy =    11.8422
   XX=    35.2634   YX=     3.6674   ZX=     1.2143
   XY=     4.2119   YY=    36.9616   ZY=     2.0990
   XZ=     0.9729   YZ=     1.6333   ZZ=    25.4333
   Eigenvalues:    25.1141    32.0967    40.4476
     19  H    Isotropic =    32.0056   Anisotropy =    10.4017
   XX=    30.1866   YX=     0.4266   ZX=     1.5945
   XY=     0.3784   YY=    28.4326   ZY=    -3.4565
   XZ=     1.9680   YZ=    -3.7432   ZZ=    37.3977
   Eigenvalues:    26.8639    30.2129    38.9401
     20  H    Isotropic =    32.6854   Anisotropy =    13.8012
   XX=    32.1613   YX=    -3.8562   ZX=     0.6546
   XY=    -3.9987   YY=    40.1005   ZY=    -1.7208
   XZ=     0.5589   YZ=    -1.3692   ZZ=    25.7944
   Eigenvalues:    25.6231    30.5469    41.8862
     21  H    Isotropic =    32.6896   Anisotropy =    10.6358
   XX=    32.7748   YX=     0.3217   ZX=    -3.5184
   XY=     0.4543   YY=    28.1466   ZY=    -3.2765
   XZ=    -3.0570   YZ=    -3.4738   ZZ=    37.1475
   Eigenvalues:    26.9299    31.3588    39.7802
     22  H    Isotropic =    32.4512   Anisotropy =     9.8869
   XX=    31.7213   YX=    -0.0956   ZX=    -3.8436
   XY=    -0.1207   YY=    29.7382   ZY=    -3.3306
   XZ=    -3.5191   YZ=    -3.7262   ZZ=    35.8940
   Eigenvalues:    27.3382    30.9729    39.0425
     23  H    Isotropic =    32.6746   Anisotropy =    13.3288
   XX=    33.5446   YX=     4.3447   ZX=     1.9593
   XY=     4.6091   YY=    37.5957   ZY=     3.2605
   XZ=     2.6937   YZ=     3.1972   ZZ=    26.8836
   Eigenvalues:    25.7993    30.6641    41.5605
     24  H    Isotropic =    35.0065   Anisotropy =    19.4456
   XX=    31.0058   YX=     4.2455   ZX=     4.6872
   XY=     3.0814   YY=    45.0004   ZY=     4.6942
   XZ=     4.3847   YZ=     5.7820   ZZ=    29.0133
   Eigenvalues:    25.1644    31.8849    47.9703
     25  H    Isotropic =    31.9372   Anisotropy =    11.5531
   XX=    32.9355   YX=    -3.7483   ZX=    -0.1001
   XY=    -3.5652   YY=    37.5636   ZY=     0.8484
   XZ=    -0.3310   YZ=     1.0716   ZZ=    25.3127
   Eigenvalues:    25.2372    30.9352    39.6393
     26  H    Isotropic =    32.7929   Anisotropy =     9.1163
   XX=    30.7205   YX=    -1.3864   ZX=    -1.5808
   XY=    -1.0439   YY=    37.4452   ZY=    -3.3527
   XZ=    -1.7548   YZ=    -3.5776   ZZ=    30.2130
   Eigenvalues:    27.5495    31.9588    38.8704
     27  H    Isotropic =    32.5841   Anisotropy =    10.2402
   XX=    31.8284   YX=     3.0427   ZX=     1.5962
   XY=     3.1008   YY=    27.8984   ZY=     2.5684
   XZ=     1.4618   YZ=     2.8438   ZZ=    38.0256
   Eigenvalues:    25.9753    32.3661    39.4110
     28  H    Isotropic =    32.5458   Anisotropy =    14.9177
   XX=    38.6414   YX=     0.5954   ZX=    -6.0240
   XY=     0.8012   YY=    26.3657   ZY=    -0.7506
   XZ=    -6.1582   YZ=    -0.8148   ZZ=    32.6303
   Eigenvalues:    26.2690    28.8775    42.4910
     29  H    Isotropic =    32.5235   Anisotropy =    10.0684
   XX=    31.3338   YX=     0.8971   ZX=     2.0627
   XY=     0.9354   YY=    37.5713   ZY=     3.7804
   XZ=     2.1025   YZ=     3.6399   ZZ=    28.6653
   Eigenvalues:    26.7094    31.6253    39.2357
     30  H    Isotropic =    32.4250   Anisotropy =    13.0097
   XX=    30.5889   YX=     0.6138   ZX=     3.8760
   XY=     0.5313   YY=    27.6295   ZY=    -2.8701
   XZ=     3.7244   YZ=    -3.5333   ZZ=    39.0565
   Eigenvalues:    26.1453    30.0315    41.0981
     31  H    Isotropic =    32.3985   Anisotropy =    14.6681
   XX=    42.0893   YX=     0.9581   ZX=     0.1319
   XY=     1.3785   YY=    26.3697   ZY=     0.4867
   XZ=     0.0732   YZ=     0.5859   ZZ=    28.7364
   Eigenvalues:    26.1748    28.8435    42.1772
 End of Minotr Frequency-dependent properties file   721 does not exist.
 End of Minotr Frequency-dependent properties file   722 does not exist.

 **********************************************************************

            Population analysis using the SCF density.

 **********************************************************************

 Orbital symmetries:
       Occupied  (A) (A) (A) (A) (A) (A) (A) (A) (A) (A) (A) (A)
                 (A) (A) (A) (A) (A) (A) (A) (A) (A) (A) (A) (A)
                 (A) (A) (A) (A) (A) (A) (A) (A) (A) (A) (A) (A)
                 (A) (A) (A) (A) (A) (A) (A) (A)
       Virtual   (A) (A) (A) (A) (A) (A) (A) (A) (A) (A) (A) (A)
                 (A) (A) (A) (A) (A) (A) (A) (A) (A) (A) (A) (A)
                 (A) (A) (A) (A) (A) (A) (A)
 The electronic state is 1-A.
 Alpha  occ. eigenvalues --  -20.23661 -11.08399 -11.04752 -11.04132 -11.04064
 Alpha  occ. eigenvalues --  -11.03675 -11.03616 -11.03585 -11.03237 -11.02768
 Alpha  occ. eigenvalues --  -11.02592  -1.27733  -1.08199  -1.03455  -0.96457
 Alpha  occ. eigenvalues --   -0.94718  -0.88778  -0.87918  -0.81054  -0.77520
 Alpha  occ. eigenvalues --   -0.72396  -0.68425  -0.63748  -0.61273  -0.58395
 Alpha  occ. eigenvalues --   -0.57780  -0.57350  -0.53518  -0.53086  -0.51013
 Alpha  occ. eigenvalues --   -0.50563  -0.50222  -0.49276  -0.48512  -0.47467
 Alpha  occ. eigenvalues --   -0.45552  -0.44354  -0.42687  -0.41859  -0.40950
 Alpha  occ. eigenvalues --   -0.39143  -0.38653  -0.36315  -0.33047
 Alpha virt. eigenvalues --    0.53230   0.55468   0.57230   0.60104   0.60832
 Alpha virt. eigenvalues --    0.61174   0.62014   0.65351   0.65502   0.66175
 Alpha virt. eigenvalues --    0.68470   0.68790   0.69576   0.71089   0.71701
 Alpha virt. eigenvalues --    0.72797   0.73008   0.74550   0.75092   0.75856
 Alpha virt. eigenvalues --    0.76576   0.78114   0.79111   0.80063   0.80372
 Alpha virt. eigenvalues --    0.80980   0.81659   0.84650   0.85440   0.86049
 Alpha virt. eigenvalues --    0.87792
          Condensed to atoms (all electrons):
              1          2          3          4          5          6
     1  C    4.741112   0.364964   0.000719  -0.000197   0.000013  -0.023894
     2  C    0.364964   4.746878  -0.019912  -0.021805  -0.002598   0.362047
     3  C    0.000719  -0.019912   4.742843  -0.020542   0.359019  -0.008282
     4  C   -0.000197  -0.021805  -0.020542   4.756600   0.358767   0.362765
     5  C    0.000013  -0.002598   0.359019   0.358767   4.776234  -0.020760
     6  C   -0.023894   0.362047  -0.008282   0.362765  -0.020760   4.758287
     7  C   -0.024963   0.360164   0.358741  -0.006179  -0.023121  -0.021917
     8  O   -0.000001   0.000253   0.267772   0.000210  -0.017400   0.000007
     9  C    0.000000   0.000004  -0.020657  -0.019570   0.358187   0.000319
    10  C    0.000000   0.000003  -0.001523  -0.002105  -0.020589  -0.000214
    11  C    0.000000   0.000000   0.000643  -0.001488  -0.022221   0.000008
    12  H    0.382435  -0.020220  -0.000017   0.000023  -0.000001  -0.002348
    13  H    0.382181  -0.020676   0.000015  -0.000037   0.000013  -0.001908
    14  H    0.382422  -0.020174   0.000014  -0.000012  -0.000001   0.001279
    15  H   -0.025015   0.383131  -0.000015   0.001269   0.000023  -0.024798
    16  H   -0.000002  -0.001733   0.375382  -0.000079  -0.022850  -0.000181
    17  H    0.000010  -0.002145   0.000644   0.382174  -0.022554  -0.023931
    18  H   -0.000008   0.001241   0.000944   0.383169  -0.019830  -0.021427
    19  H    0.000001   0.000071  -0.024030  -0.024179   0.380158   0.001226
    20  H   -0.005097  -0.020794   0.000077  -0.021085   0.001176   0.383058
    21  H    0.001320  -0.022556  -0.000187  -0.023645  -0.001927   0.381964
    22  H   -0.005312  -0.020725  -0.023056   0.000034  -0.002777   0.000166
    23  H    0.000077  -0.020825  -0.021319   0.000047   0.001162   0.001145
    24  H    0.000000   0.000003  -0.040920  -0.000037   0.002482  -0.000001
    25  H    0.000000  -0.000001  -0.003015   0.001063  -0.022585  -0.000016
    26  H    0.000000   0.000001   0.000030  -0.000426  -0.001501  -0.000316
    27  H    0.000000   0.000004  -0.000726   0.000040  -0.001614  -0.000113
    28  H    0.000000   0.000000   0.000016   0.000013   0.001124   0.000006
    29  H    0.000000   0.000000  -0.000002  -0.000604  -0.001376   0.000007
    30  H    0.000000   0.000000   0.000023   0.000050  -0.002529  -0.000001
    31  H    0.000000   0.000000  -0.000015   0.000009   0.001170   0.000000
              7          8          9         10         11         12
     1  C   -0.024963  -0.000001   0.000000   0.000000   0.000000   0.382435
     2  C    0.360164   0.000253   0.000004   0.000003   0.000000  -0.020220
     3  C    0.358741   0.267772  -0.020657  -0.001523   0.000643  -0.000017
     4  C   -0.006179   0.000210  -0.019570  -0.002105  -0.001488   0.000023
     5  C   -0.023121  -0.017400   0.358187  -0.020589  -0.022221  -0.000001
     6  C   -0.021917   0.000007   0.000319  -0.000214   0.000008  -0.002348
     7  C    4.786108  -0.019440   0.000625   0.000007  -0.000004   0.001306
     8  O   -0.019440   7.846649  -0.000457   0.000015  -0.000001   0.000000
     9  C    0.000625  -0.000457   4.741445   0.364086   0.364607   0.000000
    10  C    0.000007   0.000015   0.364086   4.743736  -0.026109   0.000000
    11  C   -0.000004  -0.000001   0.364607  -0.026109   4.743578   0.000000
    12  H    0.001306   0.000000   0.000000   0.000000   0.000000   0.631537
    13  H   -0.002304   0.000000   0.000000   0.000000   0.000000  -0.021823
    14  H   -0.002243   0.000000   0.000000   0.000000   0.000000  -0.021739
    15  H   -0.023934  -0.000003   0.000001   0.000000   0.000000  -0.002543
    16  H   -0.027682  -0.019346  -0.003105  -0.000740   0.000010   0.000000
    17  H   -0.000016  -0.000003   0.001146   0.000015   0.000029   0.000014
    18  H    0.000042  -0.000003  -0.004506  -0.000491  -0.000707  -0.000002
    19  H   -0.001067  -0.001245  -0.024424   0.001178  -0.003923   0.000000
    20  H    0.001090   0.000000  -0.000012   0.000004   0.000000   0.000078
    21  H    0.000199   0.000001   0.000113  -0.000294   0.000002   0.000046
    22  H    0.380867  -0.000491   0.000011  -0.000001   0.000000   0.000075
    23  H    0.381337  -0.001342  -0.000014   0.000000   0.000000  -0.000024
    24  H   -0.003204   0.257697   0.000009  -0.000001   0.000001   0.000000
    25  H    0.000024   0.000444   0.382209  -0.024499  -0.024615   0.000000
    26  H   -0.000002   0.000000  -0.020372   0.382186  -0.002260   0.000000
    27  H   -0.000004   0.000008  -0.019701   0.382341   0.001325   0.000000
    28  H    0.000000   0.000000  -0.019883   0.382349  -0.002456   0.000000
    29  H    0.000000   0.000000  -0.020168  -0.002291   0.381999   0.000000
    30  H    0.000000   0.000000  -0.020116   0.001312   0.382289   0.000000
    31  H    0.000000   0.000000  -0.019895  -0.002184   0.382398   0.000000
             13         14         15         16         17         18
     1  C    0.382181   0.382422  -0.025015  -0.000002   0.000010  -0.000008
     2  C   -0.020676  -0.020174   0.383131  -0.001733  -0.002145   0.001241
     3  C    0.000015   0.000014  -0.000015   0.375382   0.000644   0.000944
     4  C   -0.000037  -0.000012   0.001269  -0.000079   0.382174   0.383169
     5  C    0.000013  -0.000001   0.000023  -0.022850  -0.022554  -0.019830
     6  C   -0.001908   0.001279  -0.024798  -0.000181  -0.023931  -0.021427
     7  C   -0.002304  -0.002243  -0.023934  -0.027682  -0.000016   0.000042
     8  O    0.000000   0.000000  -0.000003  -0.019346  -0.000003  -0.000003
     9  C    0.000000   0.000000   0.000001  -0.003105   0.001146  -0.004506
    10  C    0.000000   0.000000   0.000000  -0.000740   0.000015  -0.000491
    11  C    0.000000   0.000000   0.000000   0.000010   0.000029  -0.000707
    12  H   -0.021823  -0.021739  -0.002543   0.000000   0.000014  -0.000002
    13  H    0.630954  -0.021689   0.001944  -0.000001  -0.000001  -0.000011
    14  H   -0.021689   0.630952  -0.002301  -0.000001  -0.000011   0.000001
    15  H    0.001944  -0.002301   0.654901   0.000249   0.000003  -0.000034
    16  H   -0.000001  -0.000001   0.000249   0.663219  -0.000023  -0.000016
    17  H   -0.000001  -0.000011   0.000003  -0.000023   0.648505  -0.024268
    18  H   -0.000011   0.000001  -0.000034  -0.000016  -0.024268   0.635820
    19  H    0.000000   0.000000   0.000001   0.001818  -0.007603   0.000919
    20  H    0.000041   0.000072   0.000341   0.000004  -0.002315  -0.002317
    21  H    0.000001  -0.000038  -0.006108  -0.000582   0.002084  -0.002332
    22  H    0.000317  -0.000130   0.001841   0.001966  -0.000271   0.000000
    23  H    0.000007   0.000170  -0.005732  -0.002030   0.000003   0.000001
    24  H    0.000000   0.000000   0.000001  -0.003278   0.000001   0.000001
    25  H    0.000000   0.000000   0.000000   0.000004  -0.000029   0.000046
    26  H    0.000000   0.000000   0.000000   0.000034   0.000006  -0.000330
    27  H    0.000000   0.000000   0.000000  -0.000421  -0.000003   0.000036
    28  H    0.000000   0.000000   0.000000  -0.000017   0.000000  -0.000018
    29  H    0.000000   0.000000   0.000000   0.000000  -0.000045  -0.000360
    30  H    0.000000   0.000000   0.000000   0.000000  -0.000009   0.000034
    31  H    0.000000   0.000000   0.000000  -0.000001   0.000001  -0.000016
             19         20         21         22         23         24
     1  C    0.000001  -0.005097   0.001320  -0.005312   0.000077   0.000000
     2  C    0.000071  -0.020794  -0.022556  -0.020725  -0.020825   0.000003
     3  C   -0.024030   0.000077  -0.000187  -0.023056  -0.021319  -0.040920
     4  C   -0.024179  -0.021085  -0.023645   0.000034   0.000047  -0.000037
     5  C    0.380158   0.001176  -0.001927  -0.002777   0.001162   0.002482
     6  C    0.001226   0.383058   0.381964   0.000166   0.001145  -0.000001
     7  C   -0.001067   0.001090   0.000199   0.380867   0.381337  -0.003204
     8  O   -0.001245   0.000000   0.000001  -0.000491  -0.001342   0.257697
     9  C   -0.024424  -0.000012   0.000113   0.000011  -0.000014   0.000009
    10  C    0.001178   0.000004  -0.000294  -0.000001   0.000000  -0.000001
    11  C   -0.003923   0.000000   0.000002   0.000000   0.000000   0.000001
    12  H    0.000000   0.000078   0.000046   0.000075  -0.000024   0.000000
    13  H    0.000000   0.000041   0.000001   0.000317   0.000007   0.000000
    14  H    0.000000   0.000072  -0.000038  -0.000130   0.000170   0.000000
    15  H    0.000001   0.000341  -0.006108   0.001841  -0.005732   0.000001
    16  H    0.001818   0.000004  -0.000582   0.001966  -0.002030  -0.003278
    17  H   -0.007603  -0.002315   0.002084  -0.000271   0.000003   0.000001
    18  H    0.000919  -0.002317  -0.002332   0.000000   0.000001   0.000001
    19  H    0.645987  -0.000034  -0.000002   0.000311  -0.000015   0.000077
    20  H   -0.000034   0.637639  -0.023896  -0.000020  -0.000025   0.000000
    21  H   -0.000002  -0.023896   0.648016  -0.000024  -0.000014   0.000000
    22  H    0.000311  -0.000020  -0.000024   0.637682  -0.025126  -0.000016
    23  H   -0.000015  -0.000025  -0.000014  -0.025126   0.646958   0.000587
    24  H    0.000077   0.000000   0.000000  -0.000016   0.000587   0.610781
    25  H   -0.001541   0.000001  -0.000007   0.000000  -0.000001  -0.000067
    26  H    0.000006   0.000017  -0.000196   0.000000   0.000000   0.000000
    27  H    0.000007   0.000002  -0.000128   0.000000   0.000001   0.000001
    28  H   -0.000031   0.000000   0.000006   0.000000   0.000000   0.000000
    29  H    0.000001   0.000001   0.000000   0.000000   0.000000   0.000000
    30  H    0.000190   0.000000   0.000000   0.000000   0.000000   0.000000
    31  H    0.000053   0.000000   0.000000   0.000000   0.000000   0.000000
             25         26         27         28         29         30
     1  C    0.000000   0.000000   0.000000   0.000000   0.000000   0.000000
     2  C   -0.000001   0.000001   0.000004   0.000000   0.000000   0.000000
     3  C   -0.003015   0.000030  -0.000726   0.000016  -0.000002   0.000023
     4  C    0.001063  -0.000426   0.000040   0.000013  -0.000604   0.000050
     5  C   -0.022585  -0.001501  -0.001614   0.001124  -0.001376  -0.002529
     6  C   -0.000016  -0.000316  -0.000113   0.000006   0.000007  -0.000001
     7  C    0.000024  -0.000002  -0.000004   0.000000   0.000000   0.000000
     8  O    0.000444   0.000000   0.000008   0.000000   0.000000   0.000000
     9  C    0.382209  -0.020372  -0.019701  -0.019883  -0.020168  -0.020116
    10  C   -0.024499   0.382186   0.382341   0.382349  -0.002291   0.001312
    11  C   -0.024615  -0.002260   0.001325  -0.002456   0.381999   0.382289
    12  H    0.000000   0.000000   0.000000   0.000000   0.000000   0.000000
    13  H    0.000000   0.000000   0.000000   0.000000   0.000000   0.000000
    14  H    0.000000   0.000000   0.000000   0.000000   0.000000   0.000000
    15  H    0.000000   0.000000   0.000000   0.000000   0.000000   0.000000
    16  H    0.000004   0.000034  -0.000421  -0.000017   0.000000   0.000000
    17  H   -0.000029   0.000006  -0.000003   0.000000  -0.000045  -0.000009
    18  H    0.000046  -0.000330   0.000036  -0.000018  -0.000360   0.000034
    19  H   -0.001541   0.000006   0.000007  -0.000031   0.000001   0.000190
    20  H    0.000001   0.000017   0.000002   0.000000   0.000001   0.000000
    21  H   -0.000007  -0.000196  -0.000128   0.000006   0.000000   0.000000
    22  H    0.000000   0.000000   0.000000   0.000000   0.000000   0.000000
    23  H   -0.000001   0.000000   0.000001   0.000000   0.000000   0.000000
    24  H   -0.000067   0.000000   0.000001   0.000000   0.000000   0.000000
    25  H    0.640649   0.001894  -0.002084  -0.002606   0.001907  -0.002088
    26  H    0.001894   0.632695  -0.021979  -0.022061   0.000359   0.000011
    27  H   -0.002084  -0.021979   0.633580  -0.022026   0.000011  -0.000037
    28  H   -0.002606  -0.022061  -0.022026   0.631155  -0.000015   0.000030
    29  H    0.001907   0.000359   0.000011  -0.000015   0.633403  -0.021800
    30  H   -0.002088   0.000011  -0.000037   0.000030  -0.021800   0.630356
    31  H   -0.002805  -0.000013   0.000024   0.000098  -0.022152  -0.021687
             31
     1  C    0.000000
     2  C    0.000000
     3  C   -0.000015
     4  C    0.000009
     5  C    0.001170
     6  C    0.000000
     7  C    0.000000
     8  O    0.000000
     9  C   -0.019895
    10  C   -0.002184
    11  C    0.382398
    12  H    0.000000
    13  H    0.000000
    14  H    0.000000
    15  H    0.000000
    16  H   -0.000001
    17  H    0.000001
    18  H   -0.000016
    19  H    0.000053
    20  H    0.000000
    21  H    0.000000
    22  H    0.000000
    23  H    0.000000
    24  H    0.000000
    25  H   -0.002805
    26  H   -0.000013
    27  H    0.000024
    28  H    0.000098
    29  H   -0.022152
    30  H   -0.021687
    31  H    0.631758
 Mulliken atomic charges:
              1
     1  C   -0.170765
     2  C   -0.024596
     3  C    0.077337
     4  C   -0.104243
     5  C   -0.033296
     6  C   -0.102177
     7  C   -0.114428
     8  O   -0.313321
     9  C   -0.019881
    10  C   -0.176192
    11  C   -0.173102
    12  H    0.053204
    13  H    0.052976
    14  H    0.053430
    15  H    0.046778
    16  H    0.039399
    17  H    0.048591
    18  H    0.054420
    19  H    0.056092
    20  H    0.051998
    21  H    0.048180
    22  H    0.054680
    23  H    0.044971
    24  H    0.175884
    25  H    0.057717
    26  H    0.052217
    27  H    0.051454
    28  H    0.054317
    29  H    0.051128
    30  H    0.053971
    31  H    0.053256
 Sum of Mulliken atomic charges =   0.00000
 Mulliken charges with hydrogens summed into heavy atoms:
              1
     1  C   -0.011156
     2  C    0.022182
     3  C    0.116736
     4  C   -0.001232
     5  C    0.022796
     6  C   -0.001999
     7  C   -0.014777
     8  O   -0.137437
     9  C    0.037836
    10  C   -0.018204
    11  C   -0.014747
 Sum of Mulliken charges with hydrogens summed into heavy atoms =   0.00000
 Electronic spatial extent (au):  <R**2>=           2109.0442
 Charge=              0.0000 electrons
 Dipole moment (field-independent basis, Debye):
    X=              0.9912    Y=             -0.3122    Z=              0.8460  Tot=              1.3400
 Quadrupole moment (field-independent basis, Debye-Ang):
   XX=            -68.1665   YY=            -67.4871   ZZ=            -67.3898
   XY=              2.7835   XZ=              0.0443   YZ=              2.7300
 Traceless Quadrupole moment (field-independent basis, Debye-Ang):
   XX=             -0.4854   YY=              0.1940   ZZ=              0.2914
   XY=              2.7835   XZ=              0.0443   YZ=              2.7300
 Octapole moment (field-independent basis, Debye-Ang**2):
  XXX=             -4.6950  YYY=             18.2758  ZZZ=             -2.0399  XYY=              8.4119
  XXY=              6.2440  XXZ=              1.8866  XZZ=              0.9134  YZZ=              6.4328
  YYZ=              7.7064  XYZ=              0.2955
 Hexadecapole moment (field-independent basis, Debye-Ang**3):
 XXXX=          -1749.2488 YYYY=           -575.9791 ZZZZ=           -309.5665 XXXY=             -2.4138
 XXXZ=             -2.4756 YYYX=             18.0346 YYYZ=             21.1423 ZZZX=              1.6583
 ZZZY=             -0.4878 XXYY=           -393.4033 XXZZ=           -347.8868 YYZZ=           -156.6449
 XXYZ=             -2.7473 YYXZ=              2.0682 ZZXY=             -2.9538
 N-N= 6.932457711101D+02 E-N=-2.458544569559D+03  KE= 4.555463474832D+02
 ******************************Gaussian NBO Version 3.1******************************
             N A T U R A L   A T O M I C   O R B I T A L   A N D
          N A T U R A L   B O N D   O R B I T A L   A N A L Y S I S
 ******************************Gaussian NBO Version 3.1******************************
       /RESON  / : Allow strongly delocalized NBO set
       /NLMO   / : Form Natural Localized Molecular Orbitals
       /NMR /    : Analyze NMR Sheilding Tensor 

 Analyzing the SCF density

 Job title: comment                                                         

 Storage needed:     19864 in NPA,     23691 in NBO,     45933 in NLMO (  33549317 available)


 NATURAL POPULATIONS:  Natural atomic orbital occupancies 
                                                          
   NAO  Atom  No  lang   Type(AO)    Occupancy      Energy
 ----------------------------------------------------------
     1    C    1  S      Cor( 1S)     1.99997     -10.96595
     2    C    1  S      Val( 2S)     1.08059      -0.18306
     3    C    1  px     Val( 2p)     1.00432       0.08523
     4    C    1  py     Val( 2p)     1.02437       0.08367
     5    C    1  pz     Val( 2p)     1.01651       0.08536

     6    C    2  S      Cor( 1S)     1.99997     -10.99052
     7    C    2  S      Val( 2S)     1.08109      -0.19450
     8    C    2  px     Val( 2p)     0.96066       0.10643
     9    C    2  py     Val( 2p)     0.95368       0.11030
    10    C    2  pz     Val( 2p)     0.99005       0.10129

    11    C    3  S      Cor( 1S)     1.99989     -11.03272
    12    C    3  S      Val( 2S)     1.08618      -0.21375
    13    C    3  px     Val( 2p)     0.94754       0.09536
    14    C    3  py     Val( 2p)     0.84860       0.11328
    15    C    3  pz     Val( 2p)     0.97278       0.09620

    16    C    4  S      Cor( 1S)     1.99995     -10.97458
    17    C    4  S      Val( 2S)     1.08446      -0.18876
    18    C    4  px     Val( 2p)     0.99491       0.09470
    19    C    4  py     Val( 2p)     0.98708       0.09912
    20    C    4  pz     Val( 2p)     1.00045       0.09393

    21    C    5  S      Cor( 1S)     1.99995     -10.98663
    22    C    5  S      Val( 2S)     1.10284      -0.20841
    23    C    5  px     Val( 2p)     0.95639       0.11004
    24    C    5  py     Val( 2p)     0.95504       0.11221
    25    C    5  pz     Val( 2p)     0.99735       0.09790

    26    C    6  S      Cor( 1S)     1.99996     -10.97432
    27    C    6  S      Val( 2S)     1.08398      -0.18858
    28    C    6  px     Val( 2p)     0.98566       0.09648
    29    C    6  py     Val( 2p)     0.99532       0.09600
    30    C    6  pz     Val( 2p)     0.99984       0.09433

    31    C    7  S      Cor( 1S)     1.99996     -10.97500
    32    C    7  S      Val( 2S)     1.09328      -0.19913
    33    C    7  px     Val( 2p)     0.98810       0.08887
    34    C    7  py     Val( 2p)     0.99002       0.09024
    35    C    7  pz     Val( 2p)     1.01988       0.08504

    36    O    8  S      Cor( 1S)     1.99999     -20.14048
    37    O    8  S      Val( 2S)     1.74933      -0.99778
    38    O    8  px     Val( 2p)     1.71239      -0.27114
    39    O    8  py     Val( 2p)     1.12415      -0.01553
    40    O    8  pz     Val( 2p)     1.74844      -0.28406

    41    C    9  S      Cor( 1S)     1.99996     -10.98545
    42    C    9  S      Val( 2S)     1.08570      -0.19120
    43    C    9  px     Val( 2p)     0.95501       0.11442
    44    C    9  py     Val( 2p)     0.99383       0.10722
    45    C    9  pz     Val( 2p)     0.94561       0.12079

    46    C   10  S      Cor( 1S)     1.99997     -10.96126
    47    C   10  S      Val( 2S)     1.07962      -0.17817
    48    C   10  px     Val( 2p)     1.02978       0.08474
    49    C   10  py     Val( 2p)     1.02108       0.08941
    50    C   10  pz     Val( 2p)     1.00165       0.08991

    51    C   11  S      Cor( 1S)     1.99997     -10.95973
    52    C   11  S      Val( 2S)     1.08118      -0.17760
    53    C   11  px     Val( 2p)     1.01496       0.08877
    54    C   11  py     Val( 2p)     1.01934       0.09237
    55    C   11  pz     Val( 2p)     1.01312       0.09001

    56    H   12  S      Val( 1S)     0.96420       0.07372

    57    H   13  S      Val( 1S)     0.96445       0.07326

    58    H   14  S      Val( 1S)     0.96392       0.07278

    59    H   15  S      Val( 1S)     0.97751       0.06404

    60    H   16  S      Val( 1S)     0.99638       0.04975

    61    H   17  S      Val( 1S)     0.97224       0.07112

    62    H   18  S      Val( 1S)     0.96667       0.07547

    63    H   19  S      Val( 1S)     0.96975       0.07562

    64    H   20  S      Val( 1S)     0.96864       0.07082

    65    H   21  S      Val( 1S)     0.97270       0.07042

    66    H   22  S      Val( 1S)     0.96611       0.07129

    67    H   23  S      Val( 1S)     0.97454       0.06040

    68    H   24  S      Val( 1S)     0.81161       0.07447

    69    H   25  S      Val( 1S)     0.96852       0.08019

    70    H   26  S      Val( 1S)     0.96501       0.07737

    71    H   27  S      Val( 1S)     0.96570       0.07797

    72    H   28  S      Val( 1S)     0.96259       0.07745

    73    H   29  S      Val( 1S)     0.96633       0.07876

    74    H   30  S      Val( 1S)     0.96351       0.08055

    75    H   31  S      Val( 1S)     0.96394       0.07844


 Summary of Natural Population Analysis:                  
                                                          
                                       Natural Population 
                Natural  -----------------------------------------------
    Atom  No    Charge         Core      Valence    Rydberg      Total
 -----------------------------------------------------------------------
      C    1   -0.12577      1.99997     4.12579    0.00000     6.12577
      C    2    0.01456      1.99997     3.98548    0.00000     5.98544
      C    3    0.14502      1.99989     3.85509    0.00000     5.85498
      C    4   -0.06686      1.99995     4.06691    0.00000     6.06686
      C    5   -0.01156      1.99995     4.01162    0.00000     6.01156
      C    6   -0.06476      1.99996     4.06480    0.00000     6.06476
      C    7   -0.09125      1.99996     4.09128    0.00000     6.09125
      O    8   -0.33429      1.99999     6.33430    0.00000     8.33429
      C    9    0.01988      1.99996     3.98016    0.00000     5.98012
      C   10   -0.13209      1.99997     4.13212    0.00000     6.13209
      C   11   -0.12857      1.99997     4.12860    0.00000     6.12857
      H   12    0.03580      0.00000     0.96420    0.00000     0.96420
      H   13    0.03555      0.00000     0.96445    0.00000     0.96445
      H   14    0.03608      0.00000     0.96392    0.00000     0.96392
      H   15    0.02249      0.00000     0.97751    0.00000     0.97751
      H   16    0.00362      0.00000     0.99638    0.00000     0.99638
      H   17    0.02776      0.00000     0.97224    0.00000     0.97224
      H   18    0.03333      0.00000     0.96667    0.00000     0.96667
      H   19    0.03025      0.00000     0.96975    0.00000     0.96975
      H   20    0.03136      0.00000     0.96864    0.00000     0.96864
      H   21    0.02730      0.00000     0.97270    0.00000     0.97270
      H   22    0.03389      0.00000     0.96611    0.00000     0.96611
      H   23    0.02546      0.00000     0.97454    0.00000     0.97454
      H   24    0.18839      0.00000     0.81161    0.00000     0.81161
      H   25    0.03148      0.00000     0.96852    0.00000     0.96852
      H   26    0.03499      0.00000     0.96501    0.00000     0.96501
      H   27    0.03430      0.00000     0.96570    0.00000     0.96570
      H   28    0.03741      0.00000     0.96259    0.00000     0.96259
      H   29    0.03367      0.00000     0.96633    0.00000     0.96633
      H   30    0.03649      0.00000     0.96351    0.00000     0.96351
      H   31    0.03606      0.00000     0.96394    0.00000     0.96394
 =======================================================================
   * Total *    0.00000     21.99954    66.00046    0.00000    88.00000

                                 Natural Population      
 --------------------------------------------------------
   Core                      21.99954 ( 99.9979% of  22)
   Valence                   66.00046 (100.0007% of  66)
   Natural Minimal Basis     88.00000 (100.0000% of  88)
   Natural Rydberg Basis      0.00000 (  0.0000% of  88)
 --------------------------------------------------------

    Atom  No          Natural Electron Configuration
 ----------------------------------------------------------------------------
      C    1      [core]2S( 1.08)2p( 3.05)
      C    2      [core]2S( 1.08)2p( 2.90)
      C    3      [core]2S( 1.09)2p( 2.77)
      C    4      [core]2S( 1.08)2p( 2.98)
      C    5      [core]2S( 1.10)2p( 2.91)
      C    6      [core]2S( 1.08)2p( 2.98)
      C    7      [core]2S( 1.09)2p( 3.00)
      O    8      [core]2S( 1.75)2p( 4.58)
      C    9      [core]2S( 1.09)2p( 2.89)
      C   10      [core]2S( 1.08)2p( 3.05)
      C   11      [core]2S( 1.08)2p( 3.05)
      H   12            1S( 0.96)
      H   13            1S( 0.96)
      H   14            1S( 0.96)
      H   15            1S( 0.98)
      H   16            1S( 1.00)
      H   17            1S( 0.97)
      H   18            1S( 0.97)
      H   19            1S( 0.97)
      H   20            1S( 0.97)
      H   21            1S( 0.97)
      H   22            1S( 0.97)
      H   23            1S( 0.97)
      H   24            1S( 0.81)
      H   25            1S( 0.97)
      H   26            1S( 0.97)
      H   27            1S( 0.97)
      H   28            1S( 0.96)
      H   29            1S( 0.97)
      H   30            1S( 0.96)
      H   31            1S( 0.96)


 NATURAL BOND ORBITAL ANALYSIS:

                       Occupancies       Lewis Structure    Low   High
           Occ.    -------------------  -----------------   occ   occ
  Cycle   Thresh.   Lewis   Non-Lewis     CR  BD  3C  LP    (L)   (NL)   Dev
 =============================================================================
   1(1)    1.90    87.64442   0.35558     11  31   0   2     0      0    0.02
 -----------------------------------------------------------------------------

 Structure accepted: No low occupancy Lewis orbitals

 --------------------------------------------------------
   Core                     21.99954 ( 99.998% of  22)
   Valence Lewis            65.64488 ( 99.462% of  66)
  ==================       ============================
   Total Lewis              87.64442 ( 99.596% of  88)
  -----------------------------------------------------
   Valence non-Lewis         0.35558 (  0.404% of  88)
   Rydberg non-Lewis         0.00000 (  0.000% of  88)
  ==================       ============================
   Total non-Lewis           0.35558 (  0.404% of  88)
 --------------------------------------------------------


       (Occupancy)   Bond orbital/ Coefficients/ Hybrids
 ---------------------------------------------------------------------------------
     1. (1.99040) BD ( 1) C   1 - C   2  
                ( 50.86%)   0.7132* C   1 s( 25.72%)p 2.89( 74.28%)
                                            0.0001  0.5072 -0.6789  0.2397  0.4737
                ( 49.14%)   0.7010* C   2 s( 24.98%)p 3.00( 75.02%)
                                            0.0000  0.4998  0.6620 -0.2476 -0.5007
     2. (1.99494) BD ( 1) C   1 - H  12  
                ( 51.80%)   0.7197* C   1 s( 24.69%)p 3.05( 75.31%)
                                            0.0000  0.4969  0.3468 -0.7234  0.3310
                ( 48.20%)   0.6942* H  12 s(100.00%)
                                            1.0000
     3. (1.99511) BD ( 1) C   1 - H  13  
                ( 51.81%)   0.7198* C   1 s( 24.84%)p 3.03( 75.16%)
                                            0.0000  0.4984 -0.2505 -0.1511 -0.8161
                ( 48.19%)   0.6942* H  13 s(100.00%)
                                            1.0000
     4. (1.99502) BD ( 1) C   1 - H  14  
                ( 51.81%)   0.7198* C   1 s( 24.75%)p 3.04( 75.25%)
                                            0.0000  0.4975  0.5967  0.6296  0.0040
                ( 48.19%)   0.6942* H  14 s(100.00%)
                                            1.0000
     5. (1.98553) BD ( 1) C   2 - C   6  
                ( 49.74%)   0.7052* C   2 s( 25.34%)p 2.95( 74.66%)
                                            0.0000  0.5034 -0.6107 -0.6112 -0.0028
                ( 50.26%)   0.7090* C   6 s( 25.42%)p 2.93( 74.58%)
                                            0.0001  0.5041  0.5975  0.6212 -0.0544
     6. (1.98359) BD ( 1) C   2 - C   7  
                ( 49.40%)   0.7028* C   2 s( 25.29%)p 2.95( 74.71%)
                                            0.0000  0.5029 -0.3272  0.7425 -0.2979
                ( 50.60%)   0.7114* C   7 s( 25.56%)p 2.91( 74.44%)
                                            0.0001  0.5056  0.2982 -0.7600  0.2790
     7. (1.98622) BD ( 1) C   2 - H  15  
                ( 51.04%)   0.7144* C   2 s( 24.39%)p 3.10( 75.61%)
                                            0.0000  0.4939  0.2858  0.1175  0.8128
                ( 48.96%)   0.6997* H  15 s(100.00%)
                                            1.0000
     8. (1.98155) BD ( 1) C   3 - C   5  
                ( 50.72%)   0.7122* C   3 s( 26.45%)p 2.78( 73.55%)
                                            0.0000  0.5143 -0.4637 -0.5798 -0.4293
                ( 49.28%)   0.7020* C   5 s( 25.02%)p 3.00( 74.98%)
                                            0.0001  0.5002  0.4581  0.5726  0.4605
     9. (1.98746) BD ( 1) C   3 - C   7  
                ( 49.24%)   0.7017* C   3 s( 25.51%)p 2.92( 74.49%)
                                            0.0000  0.5050  0.8386 -0.0858 -0.1851
                ( 50.76%)   0.7125* C   7 s( 25.12%)p 2.98( 74.88%)
                                            0.0000  0.5012 -0.8413  0.0728  0.1891
    10. (1.98829) BD ( 1) C   3 - O   8  
                ( 41.05%)   0.6407* C   3 s( 22.33%)p 3.48( 77.67%)
                                            0.0001 -0.4726  0.2564 -0.8065  0.2460
                ( 58.95%)   0.7678* O   8 s( 16.45%)p 5.08( 83.55%)
                                            0.0000 -0.4056 -0.3193  0.8060 -0.2897
    11. (1.98845) BD ( 1) C   3 - H  16  
                ( 50.51%)   0.7107* C   3 s( 25.70%)p 2.89( 74.30%)
                                            0.0000  0.5070 -0.1259 -0.0782  0.8491
                ( 49.49%)   0.7035* H  16 s(100.00%)
                                            1.0000
    12. (1.98414) BD ( 1) C   4 - C   5  
                ( 50.37%)   0.7097* C   4 s( 25.53%)p 2.92( 74.47%)
                                            0.0001  0.5053 -0.4072  0.7575  0.0712
                ( 49.63%)   0.7045* C   5 s( 25.78%)p 2.88( 74.22%)
                                            0.0000  0.5077  0.3948 -0.7657  0.0079
    13. (1.99082) BD ( 1) C   4 - C   6  
                ( 49.97%)   0.7069* C   4 s( 25.18%)p 2.97( 74.82%)
                                            0.0000  0.5018  0.5935 -0.0744  0.6249
                ( 50.03%)   0.7073* C   6 s( 25.25%)p 2.96( 74.75%)
                                            0.0000  0.5024 -0.5914  0.1066 -0.6217
    14. (1.99099) BD ( 1) C   4 - H  17  
                ( 51.38%)   0.7168* C   4 s( 24.10%)p 3.15( 75.90%)
                                            0.0000  0.4909  0.3958 -0.0419 -0.7750
                ( 48.62%)   0.6973* H  17 s(100.00%)
                                            1.0000
    15. (1.98883) BD ( 1) C   4 - H  18  
                ( 51.65%)   0.7187* C   4 s( 25.19%)p 2.97( 74.81%)
                                            0.0000  0.5019 -0.5704 -0.6473  0.0616
                ( 48.35%)   0.6954* H  18 s(100.00%)
                                            1.0000
    16. (1.98017) BD ( 1) C   5 - C   9  
                ( 50.14%)   0.7081* C   5 s( 25.20%)p 2.97( 74.80%)
                                            0.0001  0.5020 -0.7939 -0.0730  0.3352
                ( 49.86%)   0.7061* C   9 s( 25.31%)p 2.95( 74.69%)
                                            0.0001  0.5031  0.8196  0.0080 -0.2741
    17. (1.98371) BD ( 1) C   5 - H  19  
                ( 51.38%)   0.7168* C   5 s( 24.01%)p 3.17( 75.99%)
                                            0.0000  0.4900 -0.0633  0.2837 -0.8219
                ( 48.62%)   0.6972* H  19 s(100.00%)
                                            1.0000
    18. (1.98984) BD ( 1) C   6 - H  20  
                ( 51.55%)   0.7180* C   6 s( 25.14%)p 2.98( 74.86%)
                                            0.0000  0.5014  0.3750 -0.7751 -0.0844
                ( 48.45%)   0.6961* H  20 s(100.00%)
                                            1.0000
    19. (1.99087) BD ( 1) C   6 - H  21  
                ( 51.37%)   0.7167* C   6 s( 24.19%)p 3.13( 75.81%)
                                            0.0000  0.4919 -0.3906  0.0446  0.7768
                ( 48.63%)   0.6974* H  21 s(100.00%)
                                            1.0000
    20. (1.99049) BD ( 1) C   7 - H  22  
                ( 51.73%)   0.7192* C   7 s( 24.60%)p 3.06( 75.40%)
                                            0.0000  0.4960  0.1071  0.0563 -0.8598
                ( 48.27%)   0.6948* H  22 s(100.00%)
                                            1.0000
    21. (1.98923) BD ( 1) C   7 - H  23  
                ( 51.23%)   0.7158* C   7 s( 24.71%)p 3.05( 75.29%)
                                            0.0000  0.4971  0.4380  0.6434  0.3835
                ( 48.77%)   0.6983* H  23 s(100.00%)
                                            1.0000
    22. (1.98918) BD ( 1) O   8 - H  24  
                ( 59.42%)   0.7708* O   8 s( 16.74%)p 4.97( 83.26%)
                                            0.0000  0.4091  0.5119  0.5818  0.4818
                ( 40.58%)   0.6370* H  24 s(100.00%)
                                            1.0000
    23. (1.99021) BD ( 1) C   9 - C  10  
                ( 48.82%)   0.6987* C   9 s( 25.19%)p 2.97( 74.81%)
                                            0.0000  0.5019 -0.0462 -0.3876  0.7718
                ( 51.18%)   0.7154* C  10 s( 25.92%)p 2.86( 74.08%)
                                            0.0001  0.5091  0.0884  0.3635 -0.7752
    24. (1.98913) BD ( 1) C   9 - C  11  
                ( 48.94%)   0.6995* C   9 s( 24.93%)p 3.01( 75.07%)
                                            0.0000  0.4993 -0.4928 -0.4286 -0.5694
                ( 51.06%)   0.7146* C  11 s( 25.79%)p 2.88( 74.21%)
                                            0.0001  0.5078  0.5243  0.3935  0.5589
    25. (1.98387) BD ( 1) C   9 - H  25  
                ( 51.46%)   0.7174* C   9 s( 24.57%)p 3.07( 75.43%)
                                            0.0000  0.4956 -0.2888  0.8161  0.0702
                ( 48.54%)   0.6967* H  25 s(100.00%)
                                            1.0000
    26. (1.99511) BD ( 1) C  10 - H  26  
                ( 51.80%)   0.7197* C  10 s( 24.81%)p 3.03( 75.19%)
                                            0.0000  0.4981  0.2497 -0.8297 -0.0336
                ( 48.20%)   0.6942* H  26 s(100.00%)
                                            1.0000
    27. (1.99414) BD ( 1) C  10 - H  27  
                ( 51.74%)   0.7193* C  10 s( 24.77%)p 3.04( 75.23%)
                                            0.0000  0.4977  0.4873  0.4220  0.5803
                ( 48.26%)   0.6947* H  27 s(100.00%)
                                            1.0000
    28. (1.99427) BD ( 1) C  10 - H  28  
                ( 51.86%)   0.7201* C  10 s( 24.51%)p 3.08( 75.49%)
                                            0.0000  0.4950 -0.8321  0.0367  0.2475
                ( 48.14%)   0.6938* H  28 s(100.00%)
                                            1.0000
    29. (1.99505) BD ( 1) C  11 - H  29  
                ( 51.74%)   0.7193* C  11 s( 24.88%)p 3.02( 75.12%)
                                            0.0000  0.4988  0.2228 -0.8342 -0.0749
                ( 48.26%)   0.6947* H  29 s(100.00%)
                                            1.0000
    30. (1.99499) BD ( 1) C  11 - H  30  
                ( 51.84%)   0.7200* C  11 s( 24.70%)p 3.05( 75.30%)
                                            0.0000  0.4970  0.0593  0.3827 -0.7766
                ( 48.16%)   0.6940* H  30 s(100.00%)
                                            1.0000
    31. (1.99467) BD ( 1) C  11 - H  31  
                ( 51.80%)   0.7197* C  11 s( 24.63%)p 3.06( 75.37%)
                                            0.0000  0.4963 -0.8197  0.0526  0.2809
                ( 48.20%)   0.6943* H  31 s(100.00%)
                                            1.0000
    32. (1.99997) CR ( 1) C   1           s(100.00%)
                                            1.0000  0.0000  0.0001  0.0000  0.0000
    33. (1.99997) CR ( 1) C   2           s(100.00%)
                                            1.0000  0.0000  0.0000  0.0000  0.0000
    34. (1.99989) CR ( 1) C   3           s(100.00%)
                                            1.0000  0.0000  0.0000  0.0001  0.0000
    35. (1.99995) CR ( 1) C   4           s(100.00%)
                                            1.0000  0.0000  0.0000 -0.0001  0.0000
    36. (1.99995) CR ( 1) C   5           s(100.00%)
                                            1.0000 -0.0001  0.0000  0.0000 -0.0001
    37. (1.99996) CR ( 1) C   6           s(100.00%)
                                            1.0000  0.0000  0.0000 -0.0001  0.0000
    38. (1.99996) CR ( 1) C   7           s(100.00%)
                                            1.0000  0.0000  0.0000  0.0001  0.0000
    39. (1.99999) CR ( 1) O   8           s(100.00%)
                                            1.0000  0.0000  0.0000  0.0000  0.0000
    40. (1.99996) CR ( 1) C   9           s(100.00%)
                                            1.0000  0.0000 -0.0001  0.0000  0.0000
    41. (1.99997) CR ( 1) C  10           s(100.00%)
                                            1.0000  0.0000  0.0000  0.0000  0.0001
    42. (1.99997) CR ( 1) C  11           s(100.00%)
                                            1.0000  0.0000 -0.0001  0.0000 -0.0001
    43. (1.99291) LP ( 1) O   8           s( 66.56%)p 0.50( 33.44%)
                                            0.0000  0.8158 -0.3717  0.1089 -0.4294
    44. (1.97568) LP ( 2) O   8           s(  0.26%)p99.99( 99.74%)
                                            0.0000  0.0505 -0.7056  0.0000  0.7068
    45. (0.00972) BD*( 1) C   1 - C   2  
                ( 49.14%)   0.7010* C   1 s( 25.72%)p 2.89( 74.28%)
                                           -0.0001 -0.5072  0.6789 -0.2397 -0.4737
                ( 50.86%)  -0.7132* C   2 s( 24.98%)p 3.00( 75.02%)
                                            0.0000 -0.4998 -0.6620  0.2476  0.5007
    46. (0.00519) BD*( 1) C   1 - H  12  
                ( 48.20%)   0.6942* C   1 s( 24.69%)p 3.05( 75.31%)
                                            0.0000 -0.4969 -0.3468  0.7234 -0.3310
                ( 51.80%)  -0.7197* H  12 s(100.00%)
                                           -1.0000
    47. (0.00599) BD*( 1) C   1 - H  13  
                ( 48.19%)   0.6942* C   1 s( 24.84%)p 3.03( 75.16%)
                                            0.0000 -0.4984  0.2505  0.1511  0.8161
                ( 51.81%)  -0.7198* H  13 s(100.00%)
                                           -1.0000
    48. (0.00504) BD*( 1) C   1 - H  14  
                ( 48.19%)   0.6942* C   1 s( 24.75%)p 3.04( 75.25%)
                                            0.0000 -0.4975 -0.5967 -0.6296 -0.0040
                ( 51.81%)  -0.7198* H  14 s(100.00%)
                                           -1.0000
    49. (0.01691) BD*( 1) C   2 - C   6  
                ( 50.26%)   0.7090* C   2 s( 25.34%)p 2.95( 74.66%)
                                            0.0000  0.5034 -0.6107 -0.6112 -0.0028
                ( 49.74%)  -0.7052* C   6 s( 25.42%)p 2.93( 74.58%)
                                            0.0001  0.5041  0.5975  0.6212 -0.0544
    50. (0.01568) BD*( 1) C   2 - C   7  
                ( 50.60%)   0.7114* C   2 s( 25.29%)p 2.95( 74.71%)
                                            0.0000  0.5029 -0.3272  0.7425 -0.2979
                ( 49.40%)  -0.7028* C   7 s( 25.56%)p 2.91( 74.44%)
                                            0.0001  0.5056  0.2982 -0.7600  0.2790
    51. (0.00995) BD*( 1) C   2 - H  15  
                ( 48.96%)   0.6997* C   2 s( 24.39%)p 3.10( 75.61%)
                                            0.0000 -0.4939 -0.2858 -0.1175 -0.8128
                ( 51.04%)  -0.7144* H  15 s(100.00%)
                                           -1.0000
    52. (0.02648) BD*( 1) C   3 - C   5  
                ( 49.28%)   0.7020* C   3 s( 26.45%)p 2.78( 73.55%)
                                            0.0000 -0.5143  0.4637  0.5798  0.4293
                ( 50.72%)  -0.7122* C   5 s( 25.02%)p 3.00( 74.98%)
                                           -0.0001 -0.5002 -0.4581 -0.5726 -0.4605
    53. (0.02617) BD*( 1) C   3 - C   7  
                ( 50.76%)   0.7125* C   3 s( 25.51%)p 2.92( 74.49%)
                                            0.0000  0.5050  0.8386 -0.0858 -0.1851
                ( 49.24%)  -0.7017* C   7 s( 25.12%)p 2.98( 74.88%)
                                            0.0000  0.5012 -0.8413  0.0728  0.1891
    54. (0.02111) BD*( 1) C   3 - O   8  
                ( 58.95%)   0.7678* C   3 s( 22.33%)p 3.48( 77.67%)
                                            0.0001 -0.4726  0.2564 -0.8065  0.2460
                ( 41.05%)  -0.6407* O   8 s( 16.45%)p 5.08( 83.55%)
                                            0.0000 -0.4056 -0.3193  0.8060 -0.2897
    55. (0.02450) BD*( 1) C   3 - H  16  
                ( 49.49%)   0.7035* C   3 s( 25.70%)p 2.89( 74.30%)
                                            0.0000 -0.5070  0.1259  0.0782 -0.8491
                ( 50.51%)  -0.7107* H  16 s(100.00%)
                                           -1.0000
    56. (0.01687) BD*( 1) C   4 - C   5  
                ( 49.63%)   0.7045* C   4 s( 25.53%)p 2.92( 74.47%)
                                           -0.0001 -0.5053  0.4072 -0.7575 -0.0712
                ( 50.37%)  -0.7097* C   5 s( 25.78%)p 2.88( 74.22%)
                                            0.0000 -0.5077 -0.3948  0.7657 -0.0079
    57. (0.01110) BD*( 1) C   4 - C   6  
                ( 50.03%)   0.7073* C   4 s( 25.18%)p 2.97( 74.82%)
                                            0.0000  0.5018  0.5935 -0.0744  0.6249
                ( 49.97%)  -0.7069* C   6 s( 25.25%)p 2.96( 74.75%)
                                            0.0000  0.5024 -0.5914  0.1066 -0.6217
    58. (0.00813) BD*( 1) C   4 - H  17  
                ( 48.62%)   0.6973* C   4 s( 24.10%)p 3.15( 75.90%)
                                            0.0000 -0.4909 -0.3958  0.0419  0.7750
                ( 51.38%)  -0.7168* H  17 s(100.00%)
                                           -1.0000
    59. (0.00973) BD*( 1) C   4 - H  18  
                ( 48.35%)   0.6954* C   4 s( 25.19%)p 2.97( 74.81%)
                                            0.0000 -0.5019  0.5704  0.6473 -0.0616
                ( 51.65%)  -0.7187* H  18 s(100.00%)
                                           -1.0000
    60. (0.02199) BD*( 1) C   5 - C   9  
                ( 49.86%)   0.7061* C   5 s( 25.20%)p 2.97( 74.80%)
                                           -0.0001 -0.5020  0.7939  0.0730 -0.3352
                ( 50.14%)  -0.7081* C   9 s( 25.31%)p 2.95( 74.69%)
                                           -0.0001 -0.5031 -0.8196 -0.0080  0.2741
    61. (0.01045) BD*( 1) C   5 - H  19  
                ( 48.62%)   0.6972* C   5 s( 24.01%)p 3.17( 75.99%)
                                            0.0000 -0.4900  0.0633 -0.2837  0.8219
                ( 51.38%)  -0.7168* H  19 s(100.00%)
                                           -1.0000
    62. (0.00872) BD*( 1) C   6 - H  20  
                ( 48.45%)   0.6961* C   6 s( 25.14%)p 2.98( 74.86%)
                                            0.0000 -0.5014 -0.3750  0.7751  0.0844
                ( 51.55%)  -0.7180* H  20 s(100.00%)
                                           -1.0000
    63. (0.00883) BD*( 1) C   6 - H  21  
                ( 48.63%)   0.6974* C   6 s( 24.19%)p 3.13( 75.81%)
                                            0.0000 -0.4919  0.3906 -0.0446 -0.7768
                ( 51.37%)  -0.7167* H  21 s(100.00%)
                                           -1.0000
    64. (0.01028) BD*( 1) C   7 - H  22  
                ( 48.27%)   0.6948* C   7 s( 24.60%)p 3.06( 75.40%)
                                            0.0000 -0.4960 -0.1071 -0.0563  0.8598
                ( 51.73%)  -0.7192* H  22 s(100.00%)
                                           -1.0000
    65. (0.00867) BD*( 1) C   7 - H  23  
                ( 48.77%)   0.6983* C   7 s( 24.71%)p 3.05( 75.29%)
                                            0.0000 -0.4971 -0.4380 -0.6434 -0.3835
                ( 51.23%)  -0.7158* H  23 s(100.00%)
                                           -1.0000
    66. (0.00731) BD*( 1) O   8 - H  24  
                ( 40.58%)   0.6370* O   8 s( 16.74%)p 4.97( 83.26%)
                                            0.0000 -0.4091 -0.5119 -0.5818 -0.4818
                ( 59.42%)  -0.7708* H  24 s(100.00%)
                                           -1.0000
    67. (0.01099) BD*( 1) C   9 - C  10  
                ( 51.18%)   0.7154* C   9 s( 25.19%)p 2.97( 74.81%)
                                            0.0000  0.5019 -0.0462 -0.3876  0.7718
                ( 48.82%)  -0.6987* C  10 s( 25.92%)p 2.86( 74.08%)
                                            0.0001  0.5091  0.0884  0.3635 -0.7752
    68. (0.01018) BD*( 1) C   9 - C  11  
                ( 51.06%)   0.7146* C   9 s( 24.93%)p 3.01( 75.07%)
                                            0.0000  0.4993 -0.4928 -0.4286 -0.5694
                ( 48.94%)  -0.6995* C  11 s( 25.79%)p 2.88( 74.21%)
                                            0.0001  0.5078  0.5243  0.3935  0.5589
    69. (0.01079) BD*( 1) C   9 - H  25  
                ( 48.54%)   0.6967* C   9 s( 24.57%)p 3.07( 75.43%)
                                            0.0000 -0.4956  0.2888 -0.8161 -0.0702
                ( 51.46%)  -0.7174* H  25 s(100.00%)
                                           -1.0000
    70. (0.00664) BD*( 1) C  10 - H  26  
                ( 48.20%)   0.6942* C  10 s( 24.81%)p 3.03( 75.19%)
                                            0.0000 -0.4981 -0.2497  0.8297  0.0336
                ( 51.80%)  -0.7197* H  26 s(100.00%)
                                           -1.0000
    71. (0.00633) BD*( 1) C  10 - H  27  
                ( 48.26%)   0.6947* C  10 s( 24.77%)p 3.04( 75.23%)
                                            0.0000 -0.4977 -0.4873 -0.4220 -0.5803
                ( 51.74%)  -0.7193* H  27 s(100.00%)
                                           -1.0000
    72. (0.00489) BD*( 1) C  10 - H  28  
                ( 48.14%)   0.6938* C  10 s( 24.51%)p 3.08( 75.49%)
                                            0.0000 -0.4950  0.8321 -0.0367 -0.2475
[...]
   22      17.7333        9.1514       8.5819         3.3269      14.4063
   39     271.1741       -0.0062     271.1803        -0.0040     271.1781
   43      33.6414       -1.1267      34.7680        -3.8135      37.4549
   44       5.3079      -33.4843      38.7922       -34.6577      39.9656
 Sum      353.2682      -19.5588     372.8270       -24.3649     377.6331

 Contributions to Isotropic shielding for atom    9 (   213.7343 ppm):
                         Standard Origin              Atomic Origin
 NLMO      Total    Paramagnetic  Diamagnetic   Paramagnetic  Diamagnetic
   10       0.1060       -0.3001       0.4061        -1.1309       1.2369
   15      -0.1823       -0.5625       0.3802        -1.1185       0.9362
   16       5.6280       -9.3545      14.9825        -2.0729       7.7009
   17       0.4578        0.0716       0.3862        -0.5664       1.0242
   23      -0.3575       -6.5581       6.2006        -7.7804       7.4228
   24      -2.0996       -4.5237       2.4241        -9.5527       7.4532
   25       5.6781       -1.8262       7.5042        -5.3805      11.0585
   26       0.8554       -0.2754       1.1308        -0.1707       1.0260
   27       0.6283       -0.5452       1.1734        -0.3809       1.0092
   28       0.6037       -0.1660       0.7697        -0.4326       1.0363
   29       1.1197       -0.2638       1.3835         0.1006       1.0191
   30       0.7021       -0.6511       1.3532        -0.3310       1.0331
   31       0.6442       -0.3824       1.0266        -0.3888       1.0330
   40     199.9255       -0.0016     199.9271         0.0023     199.9231
 Sum      213.7093      -25.3391     239.0483       -29.2033     242.9126

 Contributions to Isotropic shielding for atom   10 (   224.4347 ppm):
                         Standard Origin              Atomic Origin
 NLMO      Total    Paramagnetic  Diamagnetic   Paramagnetic  Diamagnetic
   23       3.9315       -9.1441      13.0756        -4.1454       8.0769
   24      -0.3960       -0.0034      -0.3927        -1.0671       0.6711
   25       0.3398       -0.1148       0.4546        -0.6794       1.0192
   26       6.7533       -4.1857      10.9390        -4.3590      11.1123
   27       7.0547       -5.2953      12.3500        -4.0218      11.0764
   28       6.0304        3.4052       2.6252        -5.0673      11.0977
   41     200.0740       -0.0022     200.0762         0.0015     200.0725
 Sum      223.7876      -15.3403     239.1279       -19.3384     243.1260

 Contributions to Isotropic shielding for atom   11 (   221.1818 ppm):
                         Standard Origin              Atomic Origin
 NLMO      Total    Paramagnetic  Diamagnetic   Paramagnetic  Diamagnetic
   17      -0.1997       -0.0609      -0.1387        -1.1116       0.9119
   23      -0.5429        0.0538      -0.5967        -1.2233       0.6803
   24       4.6190      -11.6791      16.2981        -3.4083       8.0274
   25       0.3165        0.1514       0.1650        -0.7339       1.0504
   29       6.3334       -4.1133      10.4467        -4.7763      11.1098
   30       5.4120       -3.7187       9.1307        -5.7000      11.1120
   31       4.9148        2.5219       2.3929        -6.1816      11.0964
   42     200.0750       -0.0039     200.0789         0.0023     200.0727
 Sum      220.9281      -16.8488     237.7769       -23.1327     244.0608

 Contributions to Isotropic shielding for atom   12 (    32.5641 ppm):
                         Standard Origin              Atomic Origin
 NLMO      Total    Paramagnetic  Diamagnetic   Paramagnetic  Diamagnetic
    1       1.3982       -0.2993       1.6975         0.4239       0.9742
    2      26.4040        0.1546      26.2494         0.4724      25.9316
    3       1.9783        1.1746       0.8037         0.1334       1.8449
    4       1.9027        2.4509      -0.5482         0.0579       1.8448
    5      -0.1329        0.5840      -0.7169        -1.0302       0.8973
 Sum       31.5504        4.0648      27.4856         0.0575      31.4929

 Contributions to Isotropic shielding for atom   13 (    32.5487 ppm):
                         Standard Origin              Atomic Origin
 NLMO      Total    Paramagnetic  Diamagnetic   Paramagnetic  Diamagnetic
    1       1.6941       -1.4558       3.1498         0.8125       0.8815
    2       1.9092        1.4694       0.4398         0.0884       1.8208
    3      26.3240        0.3482      25.9758         0.4049      25.9191
    4       1.9403        1.5082       0.4321         0.1194       1.8208
   20      -0.2276       -0.1209      -0.1067        -1.0139       0.7862
 Sum       31.6399        1.7492      29.8907         0.4114      31.2285

 Contributions to Isotropic shielding for atom   14 (    32.4644 ppm):
                         Standard Origin              Atomic Origin
 NLMO      Total    Paramagnetic  Diamagnetic   Paramagnetic  Diamagnetic
    1       1.3951       -0.2934       1.6885         0.4108       0.9843
    2       1.8195        2.3756      -0.5560        -0.0133       1.8328
    3       2.0042        1.1904       0.8138         0.1681       1.8361
    4      26.3630        0.1268      26.2362         0.4401      25.9229
    6      -0.1393        0.6535      -0.7928        -1.1067       0.9674
 Sum       31.4425        4.0528      27.3897        -0.1011      31.5436

 Contributions to Isotropic shielding for atom   15 (    32.4804 ppm):
                         Standard Origin              Atomic Origin
 NLMO      Total    Paramagnetic  Diamagnetic   Paramagnetic  Diamagnetic
    1       0.7719        2.4274      -1.6555        -0.2329       1.0048
    5       1.3524        0.6037       0.7487         0.3036       1.0489
    6       1.3769        0.7506       0.6263         0.4256       0.9513
    7      26.5110       -0.1965      26.7075         0.4282      26.0828
   19      -0.0606       -0.1224       0.0618        -1.1940       1.1334
   21      -0.0514       -0.1820       0.1306        -1.1406       1.0892
 Sum       29.9003        3.2808      26.6195        -1.4101      31.3104

 Contributions to Isotropic shielding for atom   16 (    32.0991 ppm):
                         Standard Origin              Atomic Origin
 NLMO      Total    Paramagnetic  Diamagnetic   Paramagnetic  Diamagnetic
    8       1.1476       -0.2309       1.3785         0.1634       0.9842
   10       0.6257        0.9631      -0.3374        -0.9444       1.5701
   11      26.7202        0.3858      26.3344         0.6697      26.0505
   16      -0.0693       -0.1772       0.1079        -1.0161       0.9468
   22       0.3446       -0.9056       1.2502        -0.6207       0.9653
   23       0.0105       -0.6240       0.6345        -1.0204       1.0309
   27      -0.4140       -1.2871       0.8731        -0.8568       0.4427
 Sum       28.3653       -1.8760      30.2413        -3.6252      31.9905

 Contributions to Isotropic shielding for atom   17 (    32.4741 ppm):
                         Standard Origin              Atomic Origin
 NLMO      Total    Paramagnetic  Diamagnetic   Paramagnetic  Diamagnetic
    3      -0.2237       -1.2255       1.0018        -0.7704       0.5467
   12       1.3916        0.3739       1.0176         0.3364       1.0552
   13       1.0708        0.9420       0.1288         0.0631       1.0077
   14      26.4251        0.0060      26.4191         0.3941      26.0310
   15       2.0209        1.4553       0.5656         0.1856       1.8352
   17      -0.1541       -0.4200       0.2659        -1.3024       1.1482
 Sum       30.5305        1.1317      29.3988        -1.0936      31.6240

 Contributions to Isotropic shielding for atom   18 (    32.5528 ppm):
                         Standard Origin              Atomic Origin
 NLMO      Total    Paramagnetic  Diamagnetic   Paramagnetic  Diamagnetic
   12       1.2928        0.4319       0.8609         0.3979       0.8949
   13       1.0958        1.0721       0.0238         0.0842       1.0116
   14       2.1007        1.5070       0.5936         0.3160       1.7846
   15      26.3398        0.0533      26.2866         0.4488      25.8910
   16      -0.2094       -0.0717      -0.1377        -1.2065       0.9971
   26      -0.3092       -1.1258       0.8165        -0.8639       0.5547
   29      -0.3319       -1.6598       1.3279        -0.8782       0.5462
 Sum       29.9786        0.2071      29.7715        -1.7016      31.6802

 Contributions to Isotropic shielding for atom   19 (    32.0056 ppm):
                         Standard Origin              Atomic Origin
 NLMO      Total    Paramagnetic  Diamagnetic   Paramagnetic  Diamagnetic
    8       1.2300        0.9393       0.2906         0.2895       0.9404
   10       0.1407       -0.6393       0.7800        -1.5657       1.7064
   12       1.1545        0.7187       0.4358         0.0166       1.1378
   14      -0.1264       -0.6978       0.5714        -1.3068       1.1804
   16       1.0507        1.3669      -0.3163        -0.1191       1.1697
   17      26.2398       -0.0611      26.3009         0.4280      25.8118
   24      -0.0395       -0.6169       0.5774        -1.0566       1.0171
   30      -0.1424       -1.6187       1.4763        -1.0456       0.9032
 Sum       29.5072       -0.6088      30.1161        -4.3596      33.8668

 Contributions to Isotropic shielding for atom   20 (    32.6854 ppm):
                         Standard Origin              Atomic Origin
 NLMO      Total    Paramagnetic  Diamagnetic   Paramagnetic  Diamagnetic
    1      -0.1577       -0.2642       0.1065        -1.2604       1.1026
    2      -0.0597       -1.4355       1.3758        -0.9889       0.9292
    5       1.0222        1.4206      -0.3984         0.1481       0.8741
   13       1.1951        0.7881       0.4070         0.2096       0.9854
   15       0.2016        0.1047       0.0969        -0.8006       1.0022
   18      26.4094       -0.0066      26.4160         0.4954      25.9140
   19       2.1446        1.3709       0.7737         0.3897       1.7549
 Sum       30.7554        1.9779      28.7775        -1.8071      32.5625

 Contributions to Isotropic shielding for atom   21 (    32.6896 ppm):
                         Standard Origin              Atomic Origin
 NLMO      Total    Paramagnetic  Diamagnetic   Paramagnetic  Diamagnetic
    5       1.2557        0.5015       0.7541         0.2812       0.9744
    7      -0.0171       -0.7561       0.7390        -1.1185       1.1014
   13       1.3709       -0.1237       1.4946         0.3989       0.9720
   18       1.9307        1.5669       0.3638         0.1174       1.8133
   19      26.4407        0.1693      26.2714         0.3843      26.0564
 Sum       30.9809        1.3580      29.6229         0.0634      30.9175

 Contributions to Isotropic shielding for atom   22 (    32.4512 ppm):
                         Standard Origin              Atomic Origin
 NLMO      Total    Paramagnetic  Diamagnetic   Paramagnetic  Diamagnetic
    1      -0.1224       -0.5367       0.4143        -1.2351       1.1128
    3      -0.0094       -1.1310       1.1216        -0.9588       0.9494
    6       1.1530        0.6450       0.5080         0.3399       0.8131
    9       1.3572        0.0366       1.3206         0.4878       0.8693
   10      -0.0420       -0.0126      -0.0294        -1.2694       1.2274
   20      26.2611        0.1519      26.1092         0.4483      25.8128
   21       1.9275        1.7451       0.1823         0.0888       1.8386
 Sum       30.5249        0.8984      29.6266        -2.0984      32.6234

 Contributions to Isotropic shielding for atom   23 (    32.6746 ppm):
                         Standard Origin              Atomic Origin
 NLMO      Total    Paramagnetic  Diamagnetic   Paramagnetic  Diamagnetic
    4      -0.0643       -1.1325       1.0682        -0.9082       0.8439
    6       1.0026        1.2024      -0.1998         0.0330       0.9696
    7       0.0216       -0.3412       0.3628        -1.0291       1.0507
    9       1.2344        0.6590       0.5755         0.3870       0.8474
   10      -0.2304        0.3863      -0.6167        -1.3943       1.1638
   20       2.0099        1.5825       0.4274         0.1561       1.8538
   21      26.5344       -0.0032      26.5376         0.4462      26.0882
   22      -0.0042       -1.0614       1.0572        -0.7086       0.7044
 Sum       30.5041        1.2919      29.2122        -3.0177      33.5218

 Contributions to Isotropic shielding for atom   24 (    35.0065 ppm):
                         Standard Origin              Atomic Origin
 NLMO      Total    Paramagnetic  Diamagnetic   Paramagnetic  Diamagnetic
    9      -0.2490        0.4804      -0.7294        -1.2296       0.9806
   10       1.3322        2.1273      -0.7951         0.6183       0.7139
   11       0.1655        0.3076      -0.1421        -0.8669       1.0324
   21      -0.0708       -0.5570       0.4862        -1.0114       0.9406
   22      23.1373       -0.4682      23.6055        -0.0653      23.2026
   43       4.1849        0.8825       3.3024         2.2491       1.9358
   44       5.6061        2.4741       3.1320         2.4369       3.1692
 Sum       34.1062        5.2466      28.8596         2.1312      31.9750

 Contributions to Isotropic shielding for atom   25 (    31.9372 ppm):
                         Standard Origin              Atomic Origin
 NLMO      Total    Paramagnetic  Diamagnetic   Paramagnetic  Diamagnetic
    8      -0.1451        0.2164      -0.3616        -1.1664       1.0212
   10       0.1188       -0.3552       0.4740        -1.3520       1.4708
   16       1.6486       -0.0913       1.7398         0.6484       1.0001
   23       0.9863        1.3510      -0.3646        -0.0260       1.0123
   24       0.7920        2.0198      -1.2278        -0.2288       1.0208
   25      26.2637       -0.0586      26.3224         0.4370      25.8268
 Sum       29.6643        3.0821      26.5822        -1.6878      31.3521

 Contributions to Isotropic shielding for atom   26 (    32.7929 ppm):
                         Standard Origin              Atomic Origin
 NLMO      Total    Paramagnetic  Diamagnetic   Paramagnetic  Diamagnetic
   12      -0.1145        0.0189      -0.1334        -1.0690       0.9545
   23       1.4573       -0.4321       1.8894         0.5137       0.9436
   26      26.3353        0.2519      26.0834         0.3810      25.9543
   27       2.1257        0.3409       1.7848         0.3062       1.8196
   28       1.9782        2.0493      -0.0711         0.1316       1.8465
 Sum       31.7821        2.2290      29.5531         0.2635      31.5186

 Contributions to Isotropic shielding for atom   27 (    32.5841 ppm):
                         Standard Origin              Atomic Origin
 NLMO      Total    Paramagnetic  Diamagnetic   Paramagnetic  Diamagnetic
    8      -0.0917       -0.0203      -0.0714        -1.0175       0.9258
   23       1.5151       -0.7221       2.2372         0.4823       1.0328
   26       2.1144        0.3873       1.7271         0.2788       1.8356
   27      26.3620        0.2923      26.0697         0.3610      26.0010
   28       1.9580        1.8029       0.1551         0.0932       1.8647
 Sum       31.8577        1.7401      30.1176         0.1978      31.6599

 Contributions to Isotropic shielding for atom   28 (    32.5458 ppm):
                         Standard Origin              Atomic Origin
 NLMO      Total    Paramagnetic  Diamagnetic   Paramagnetic  Diamagnetic
   23       1.1600        0.9428       0.2172         0.1123       1.0477
   24      -0.1418        0.5304      -0.6723        -1.1093       0.9675
   26       2.0016        1.6790       0.3226         0.1411       1.8605
   27       2.0576        1.4519       0.6057         0.1949       1.8626
   28      26.3069       -0.0316      26.3385         0.3980      25.9089
   31      -0.0919       -1.0322       0.9403        -0.9786       0.8867
 Sum       31.2923        3.5403      27.7520        -1.2416      32.5338

 Contributions to Isotropic shielding for atom   29 (    32.5235 ppm):
                         Standard Origin              Atomic Origin
 NLMO      Total    Paramagnetic  Diamagnetic   Paramagnetic  Diamagnetic
   12      -0.0818        0.2040      -0.2859        -1.1094       1.0275
   23      -0.1438        0.3407      -0.4844        -1.0123       0.8685
   24       1.5519       -1.0979       2.6498         0.6356       0.9163
   29      26.3773        0.2697      26.1075         0.4019      25.9753
   30       2.0004        0.8850       1.1154         0.1783       1.8221
   31       1.8854        2.0593      -0.1739         0.0430       1.8424
 Sum       31.5893        2.6608      28.9285        -0.8628      32.4521

 Contributions to Isotropic shielding for atom   30 (    32.4250 ppm):
                         Standard Origin              Atomic Origin
 NLMO      Total    Paramagnetic  Diamagnetic   Paramagnetic  Diamagnetic
   24       1.5848       -0.8022       2.3871         0.5665       1.0183
   29       2.0247        0.8541       1.1706         0.1882       1.8365
   30      26.3362        0.2627      26.0735         0.4255      25.9107
   31       1.8959        2.2540      -0.3581         0.0496       1.8463
 Sum       31.8416        2.5685      29.2732         1.2298      30.6119

 Contributions to Isotropic shielding for atom   31 (    32.3985 ppm):
                         Standard Origin              Atomic Origin
 NLMO      Total    Paramagnetic  Diamagnetic   Paramagnetic  Diamagnetic
   23      -0.1824        0.7509      -0.9333        -1.1310       0.9486
   24       1.2757        0.2653       1.0104         0.2460       1.0297
   29       1.9500        1.7310       0.2190         0.0938       1.8562
   30       1.9294        1.9538      -0.0244         0.0809       1.8485
   31      26.3739        0.0209      26.3530         0.4441      25.9298
 Sum       31.3466        4.7219      26.6247        -0.2662      31.6128
 
 1\1\GINC-COMPUTE-10-7\SP\RHF\STO-3G\C10H20O1\YTSAI.IQUIR\24-May-2020\0
 \\# rhf/STO-3G nmr pop=nbo\\comment\\0,1\C,0,2.98724738,0.550267365,-1
 .657740975\C,0,1.625463559,-0.135062031,-1.534231253\C,0,0.258052106,-
 1.367104022,0.20779313\C,0,0.15298397,1.190570407,0.072513461\C,0,-0.2
 52553595,-0.067621308,0.873412585\C,0,0.488471894,0.890484475,-1.38648
 1254\C,0,1.647590945,-1.159314922,-0.389614169\O,0,0.315949127,-2.3957
 54927,1.193886265\C,0,-1.771556606,-0.153918937,1.211776671\C,0,-2.688
 95223,-0.082298735,-0.012411172\C,0,-2.182648551,0.921970114,2.2250412
 11\H,0,3.007945819,1.220193347,-2.523818055\H,0,3.218835339,1.14294971
 3,-0.76645371\H,0,3.783199182,-0.19029332,-1.790050844\H,0,1.452137283
 ,-0.675673675,-2.4744244\H,0,-0.425726942,-1.708106405,-0.576326403\H,
 0,1.041158394,1.63028976,0.545531712\H,0,-0.616914458,1.966839753,0.11
 6875993\H,0,0.255999816,0.00815847,1.84684486\H,0,0.736390628,1.821035
 096,-1.910666959\H,0,-0.409452734,0.497128495,-1.879705652\H,0,2.33428
 3384,-0.844449665,0.408077668\H,0,2.052529306,-2.112091014,-0.75379967
 1\H,0,0.632478085,-3.204186539,0.755979013\H,0,-1.95208858,-1.12222172
 4,1.697418192\H,0,-2.613138576,0.882307631,-0.523646694\H,0,-2.4615040
 99,-0.870384114,-0.735254118\H,0,-3.734845434,-0.21182159,0.287821299\
 H,0,-2.100285179,1.931099884,1.810437908\H,0,-1.558535837,0.870360455,
 3.123335071\H,0,-3.222513399,0.776647964,2.537880289\\Version=EM64L-G0
 9RevC.01\State=1-A\HF=-459.6123277\RMSD=7.331e-09\Dipole=0.1429522,-0.
 0282129,-0.5066699\Quadrupole=0.0401089,1.7257926,-1.7659015,-0.823243
 7,0.0162994,2.1852133\PG=C01 [X(C10H20O1)]\\@


 The arm of the moral universe is long, but it bends toward justice.
 -- Martin Luther King, Jr.
 Job cpu time:  0 days  0 hours  0 minutes 37.7 seconds.
 File lengths (MBytes):  RWF=      5 Int=      0 D2E=      0 Chk=      1 Scr=      1
 Normal termination of Gaussian 09 at Sun May 24 02:04:30 2020.
