 Entering Gaussian System, Link 0=g09
 Input=/home/ytsai.iquir/menthol/01_menthol_M0052_MMFF_NMR_rhf_STO-3G_nbo.gjc
 Output=/home/ytsai.iquir/menthol/01_menthol_M0052_MMFF_NMR_rhf_STO-3G_nbo.log
 Initial command:
 /share/apps/Gaussian09/EM64T.SSE4.2-enabled/g09/l1.exe /tmp/Gau-30674.inp -scrdir=/tmp/
 Entering Link 1 = /share/apps/Gaussian09/EM64T.SSE4.2-enabled/g09/l1.exe PID=     30675.
  
 Copyright (c) 1988,1990,1992,1993,1995,1998,2003,2009,2011,
            Gaussian, Inc.  All Rights Reserved.
  
 This is part of the Gaussian(R) 09 program.  It is based on
 the Gaussian(R) 03 system (copyright 2003, Gaussian, Inc.),
 the Gaussian(R) 98 system (copyright 1998, Gaussian, Inc.),
 the Gaussian(R) 94 system (copyright 1995, Gaussian, Inc.),
 the Gaussian 92(TM) system (copyright 1992, Gaussian, Inc.),
 the Gaussian 90(TM) system (copyright 1990, Gaussian, Inc.),
 the Gaussian 88(TM) system (copyright 1988, Gaussian, Inc.),
 the Gaussian 86(TM) system (copyright 1986, Carnegie Mellon
 University), and the Gaussian 82(TM) system (copyright 1983,
 Carnegie Mellon University). Gaussian is a federally registered
 trademark of Gaussian, Inc.
  
 This software contains proprietary and confidential information,
 including trade secrets, belonging to Gaussian, Inc.
  
 This software is provided under written license and may be
 used, copied, transmitted, or stored only in accord with that
 written license.
  
 The following legend is applicable only to US Government
 contracts under FAR:
  
                    RESTRICTED RIGHTS LEGEND
  
 Use, reproduction and disclosure by the US Government is
 subject to restrictions as set forth in subparagraphs (a)
 and (c) of the Commercial Computer Software - Restricted
 Rights clause in FAR 52.227-19.
  
 Gaussian, Inc.
 340 Quinnipiac St., Bldg. 40, Wallingford CT 06492
  
  
 ---------------------------------------------------------------
 Warning -- This program may not be used in any manner that
 competes with the business of Gaussian, Inc. or will provide
 assistance to any competitor of Gaussian, Inc.  The licensee
 of this program is prohibited from giving any competitor of
 Gaussian, Inc. access to this program.  By using this program,
 the user acknowledges that Gaussian, Inc. is engaged in the
 business of creating and licensing software in the field of
 computational chemistry and represents and warrants to the
 licensee that it is not a competitor of Gaussian, Inc. and that
 it will not use this program in any manner prohibited above.
 ---------------------------------------------------------------
  

 Cite this work as:
 Gaussian 09, Revision C.01,
 M. J. Frisch, G. W. Trucks, H. B. Schlegel, G. E. Scuseria, 
 M. A. Robb, J. R. Cheeseman, G. Scalmani, V. Barone, B. Mennucci, 
 G. A. Petersson, H. Nakatsuji, M. Caricato, X. Li, H. P. Hratchian, 
 A. F. Izmaylov, J. Bloino, G. Zheng, J. L. Sonnenberg, M. Hada, 
 M. Ehara, K. Toyota, R. Fukuda, J. Hasegawa, M. Ishida, T. Nakajima, 
 Y. Honda, O. Kitao, H. Nakai, T. Vreven, J. A. Montgomery, Jr., 
 J. E. Peralta, F. Ogliaro, M. Bearpark, J. J. Heyd, E. Brothers, 
 K. N. Kudin, V. N. Staroverov, T. Keith, R. Kobayashi, J. Normand, 
 K. Raghavachari, A. Rendell, J. C. Burant, S. S. Iyengar, J. Tomasi, 
 M. Cossi, N. Rega, J. M. Millam, M. Klene, J. E. Knox, J. B. Cross, 
 V. Bakken, C. Adamo, J. Jaramillo, R. Gomperts, R. E. Stratmann, 
 O. Yazyev, A. J. Austin, R. Cammi, C. Pomelli, J. W. Ochterski, 
 R. L. Martin, K. Morokuma, V. G. Zakrzewski, G. A. Voth, 
 P. Salvador, J. J. Dannenberg, S. Dapprich, A. D. Daniels, 
 O. Farkas, J. B. Foresman, J. V. Ortiz, J. Cioslowski, 
 and D. J. Fox, Gaussian, Inc., Wallingford CT, 2010.
 
 ******************************************
 Gaussian 09:  EM64L-G09RevC.01 23-Sep-2011
                 3-Aug-2021 
 ******************************************
 %nprocshared=4
 Will use up to    4 processors via shared memory.
 ------------------------
 # rhf/STO-3G nmr pop=nbo
 ------------------------
 1/38=1/1;
 2/12=2,17=6,18=5,40=1/2;
 3/6=3,11=1,16=1,25=1,30=1,116=1/1,2,8,3;
 4//1;
 5/5=2,38=5/2;
 8/6=1,10=90,11=11/1;
 10/13=100,45=16/2;
 6/7=2,8=2,9=2,10=2,28=1,64=1/1,7;
 99/9=1/99;
 -------
 comment
 -------
 Charge =  0 Multiplicity = 1
 Symbolic Z-Matrix:
 6                     2.02773   0.31907  -2.36444 
 6                     0.62029  -0.16254  -2.00276 
 6                     0.97157  -1.06057   0.3895 
 6                     0.14012   1.33389   0.01574 
 6                     0.22426   0.14826   0.9982 
 6                    -0.2329    0.96547  -1.41938 
 6                     0.62774  -1.37927  -1.06773 
 8                     2.37561  -0.7916    0.4809 
 6                    -1.11659  -0.2438    1.69346 
 6                    -2.29932  -0.53396   0.7732 
 6                    -1.53844   0.82313   2.71624 
 1                     2.62677  -0.5035   -2.76908 
 1                     2.56346   0.73982  -1.50987 
 1                     1.97623   1.09841  -3.13277 
 1                     0.15397  -0.47882  -2.94571 
 1                     0.79953  -1.95235   1.0029 
 1                     1.12142   1.82601  -0.00494 
 1                    -0.55587   2.09539   0.383 
 1                     0.86532   0.50795   1.81843 
 1                    -0.15267   1.85899  -2.05099 
 1                    -1.28473   0.66715  -1.46455 
 1                     1.33168  -2.12467  -1.45932 
 1                    -0.35998  -1.84943  -1.10749 
 1                     2.84738  -1.57635   0.1536 
 1                    -0.92675  -1.15842   2.27167 
 1                    -2.63695   0.36522   0.24997 
 1                    -2.06789  -1.30667   0.03934 
 1                    -3.15141  -0.89951   1.35829 
 1                    -1.81224   1.76628   2.23369 
 1                    -0.73162   1.02474   3.42864 
 1                    -2.40573   0.4817    3.29225 
 
                          Input orientation:                          
 ---------------------------------------------------------------------
 Center     Atomic      Atomic             Coordinates (Angstroms)
 Number     Number       Type             X           Y           Z
 ---------------------------------------------------------------------
      1          6           0        2.027731    0.319065   -2.364439
      2          6           0        0.620289   -0.162542   -2.002757
      3          6           0        0.971565   -1.060565    0.389500
      4          6           0        0.140119    1.333886    0.015737
      5          6           0        0.224256    0.148258    0.998201
      6          6           0       -0.232901    0.965468   -1.419380
      7          6           0        0.627741   -1.379267   -1.067734
      8          8           0        2.375608   -0.791599    0.480901
      9          6           0       -1.116587   -0.243800    1.693465
     10          6           0       -2.299324   -0.533959    0.773204
     11          6           0       -1.538436    0.823134    2.716235
     12          1           0        2.626773   -0.503504   -2.769084
     13          1           0        2.563462    0.739821   -1.509867
     14          1           0        1.976233    1.098410   -3.132771
     15          1           0        0.153974   -0.478817   -2.945713
     16          1           0        0.799534   -1.952346    1.002899
     17          1           0        1.121421    1.826006   -0.004943
     18          1           0       -0.555869    2.095390    0.383002
     19          1           0        0.865317    0.507951    1.818432
     20          1           0       -0.152672    1.858992   -2.050985
     21          1           0       -1.284729    0.667149   -1.464545
     22          1           0        1.331678   -2.124674   -1.459317
     23          1           0       -0.359975   -1.849434   -1.107486
     24          1           0        2.847377   -1.576348    0.153601
     25          1           0       -0.926749   -1.158425    2.271666
     26          1           0       -2.636950    0.365221    0.249968
     27          1           0       -2.067885   -1.306674    0.039337
     28          1           0       -3.151411   -0.899512    1.358288
     29          1           0       -1.812236    1.766277    2.233688
     30          1           0       -0.731618    1.024739    3.428643
     31          1           0       -2.405733    0.481696    3.292254
 ---------------------------------------------------------------------
                    Distance matrix (angstroms):
                    1          2          3          4          5
     1  C    0.000000
     2  C    1.530899   0.000000
     3  C    3.256232   2.579289   0.000000
     4  C    3.202839   2.558159   2.562108   0.000000
     5  C    3.819561   3.042891   1.546040   1.542086   0.000000
     6  C    2.534054   1.529924   2.971127   1.527887   2.592590
     7  C    2.554554   1.534517   1.530789   2.961906   2.600811
     8  O    3.074175   3.105707   1.432492   3.119531   2.404006
     9  C    5.164313   4.084776   2.593802   2.623580   1.560435
    10  C    5.412565   4.045744   3.335155   3.164409   2.623833
    11  C    6.227751   5.282096   3.906677   3.220420   2.552290
    12  H    1.095084   2.174740   3.609250   4.161091   4.515453
    13  H    1.092857   2.198436   3.063188   2.924547   3.480264
    14  H    1.095611   2.169220   4.251696   3.652378   4.586626
    15  H    2.117890   1.098475   3.482891   3.472214   3.994073
    16  H    4.243435   3.502783   1.095959   3.494086   2.177958
    17  H    2.942701   2.862990   2.917248   1.097982   2.150824
    18  H    4.168783   3.489047   3.506159   1.095067   2.185953
    19  H    4.345491   3.887298   2.124471   2.111348   1.101417
    20  H    2.687710   2.164808   3.967832   2.152395   3.516564
    21  H    3.450125   2.146427   3.393131   2.160085   2.934519
    22  H    2.697331   2.156702   2.163361   3.944266   3.525903
    23  H    3.461713   2.146633   2.153203   3.412514   2.960745
    24  H    3.256522   3.407146   1.959681   3.977149   3.250904
    25  H    5.692574   4.653579   2.675018   3.526902   2.157300
    26  H    5.347569   3.995360   3.882489   2.950472   2.965371
    27  H    5.019486   3.564472   3.069437   3.442150   2.879263
    28  H    6.493622   5.105434   4.238327   4.198175   3.552830
    29  H    6.162998   5.252141   4.375114   2.986295   2.879534
    30  H    6.455368   5.721660   4.060261   3.536018   2.754808
    31  H    7.188895   6.132616   4.712822   4.235935   3.505809
                    6          7          8          9         10
     6  C    0.000000
     7  C    2.522329   0.000000
     8  O    3.674598   2.408041   0.000000
     9  C    3.454423   3.457771   3.737087   0.000000
    10  C    3.365385   3.559678   4.691142   1.526414   0.000000
    11  C    4.339124   4.884805   4.787883   1.536998   2.489181
    12  H    3.486734   2.767252   3.272382   5.830483   6.067550
    13  H    2.806912   2.903968   2.518669   4.977108   5.521017
    14  H    2.798866   3.495953   4.097591   5.887241   6.016781
    15  H    2.136662   2.135901   4.095751   4.815758   4.455565
    16  H    3.930267   2.155331   2.025790   2.658483   3.415773
    17  H    2.139006   3.412773   2.942938   3.489608   4.228055
    18  H    2.151654   3.947000   4.115562   2.739256   3.178894
    19  H    3.449469   3.456586   2.399750   2.123367   3.491852
    20  H    1.097153   3.473060   4.452895   4.401337   4.279062
    21  H    1.094247   2.828925   4.394402   3.291068   2.734883
    22  H    3.463882   1.097495   2.575136   4.412677   4.549582
    23  H    2.834978   1.094633   3.335477   3.315999   3.004754
    24  H    4.292227   2.541118   0.972380   4.456442   5.287629
    25  H    4.314646   3.690095   3.774515   1.098587   2.125866
    26  H    2.987720   3.929095   5.149495   2.183139   1.093752
    27  H    3.264606   2.915009   4.494988   2.184218   1.090511
    28  H    4.439740   4.516385   5.597266   2.163980   1.096359
    29  H    4.059619   5.171782   5.210857   2.194580   2.767915
    30  H    4.873968   5.276789   4.652217   2.183629   3.455228
    31  H    5.211020   5.628022   5.690888   2.178157   2.718177
                   11         12         13         14         15
    11  C    0.000000
    12  H    7.014105   0.000000
    13  H    5.890030   1.770732   0.000000
    14  H    6.829315   1.766804   1.762737   0.000000
    15  H    6.051197   2.479222   3.058164   2.417284   0.000000
    16  H    4.013093   4.434614   4.083282   5.272143   4.263751
    17  H    3.935150   3.915760   2.350336   3.323162   3.859571
    18  H    2.833381   5.178717   3.892397   4.445916   4.267407
    19  H    2.585231   5.017078   3.743666   5.108541   4.916991
    20  H    5.071463   3.717844   2.987096   2.506189   2.521888
    21  H    4.191375   4.286268   3.849144   3.688202   2.361559
    22  H    5.861942   2.453763   3.118522   3.688383   2.511017
    23  H    4.811677   3.673296   3.925893   4.271936   2.349854
    24  H    5.617826   3.121177   2.865723   4.325905   4.250263
    25  H    2.120938   6.202064   5.484971   6.536707   5.371301
    26  H    2.738411   6.129938   5.502875   5.767317   4.325972
    27  H    3.461529   5.529207   5.295050   5.674644   3.812155
    28  H    2.722722   7.111921   6.601022   7.103100   5.443066
    29  H    1.094229   7.062892   5.849321   6.602835   5.977677
    30  H    1.095046   7.212915   5.943704   7.098594   6.608886
    31  H    1.095710   7.939556   6.915193   7.801468   6.810794
                   16         17         18         19         20
    16  H    0.000000
    17  H    3.923685   0.000000
    18  H    4.313416   1.742519   0.000000
    19  H    2.592775   2.264411   2.569084   0.000000
    20  H    4.975862   2.410537   2.478456   4.223033   0.000000
    21  H    4.158628   3.043509   2.446332   3.927592   1.745267
    22  H    2.524951   4.215126   4.976536   4.229875   4.292197
    23  H    2.410140   4.113271   4.221560   3.952164   3.832178
    24  H    2.248631   3.818386   5.011623   3.323331   5.065772
    25  H    2.284761   4.276070   3.780465   2.488720   5.328162
    26  H    4.212772   4.040325   2.709627   3.840095   3.700996
    27  H    3.093127   4.470718   3.738761   3.880943   4.249580
    28  H    4.104233   5.248231   4.081354   4.280979   5.312713
    29  H    4.707903   3.690716   2.260932   2.987493   4.595778
    30  H    4.134211   3.983127   3.233127   2.325952   5.572924
    31  H    4.630274   5.011935   3.806541   3.587841   5.960154
                   21         22         23         24         25
    21  H    0.000000
    22  H    3.826210   0.000000
    23  H    2.704783   1.749638   0.000000
    24  H    4.972522   2.280243   3.457170   0.000000
    25  H    4.173744   4.467030   3.495339   4.347975   0.000000
    26  H    2.204363   4.987107   3.454272   5.818661   3.055086
    27  H    2.602109   3.804223   2.127615   4.923980   2.511466
    28  H    3.729250   5.434887   3.843761   6.155877   2.418763
    29  H    3.894005   6.217876   5.132823   6.100156   3.056045
    30  H    4.937316   6.169939   5.382885   5.504613   2.478483
    31  H    4.890621   6.583223   5.383029   6.456148   2.432897
                   26         27         28         29         30
    26  H    0.000000
    27  H    1.778605   0.000000
    28  H    1.758577   1.754833   0.000000
    29  H    2.564811   3.784648   3.109042   0.000000
    30  H    3.764204   4.325331   3.720821   1.773565   0.000000
    31  H    3.053282   3.727449   2.490782   1.767187   1.765264
                   31
    31  H    0.000000
 Stoichiometry    C10H20O
 Framework group  C1[X(C10H20O)]
 Deg. of freedom    87
 Full point group                 C1      NOp   1
 Largest Abelian subgroup         C1      NOp   1
 Largest concise Abelian subgroup C1      NOp   1
                         Standard orientation:                         
 ---------------------------------------------------------------------
 Center     Atomic      Atomic             Coordinates (Angstroms)
 Number     Number       Type             X           Y           Z
 ---------------------------------------------------------------------
      1          6           0        2.984981   -0.449726   -0.476441
      2          6           0        1.832258   -0.888282    0.430504
      3          6           0        0.348980    1.221738    0.451325
      4          6           0       -0.126396   -0.677382   -1.201479
      5          6           0       -0.703508    0.542044   -0.454504
      6          6           0        0.736318   -1.611658   -0.354550
      7          6           0        1.243078    0.268641    1.248514
      8          8           0        1.178599    2.036093   -0.385688
      9          6           0       -2.070303    0.306074    0.260442
     10          6           0       -2.131740   -0.863539    1.239305
     11          6           0       -3.206985    0.152377   -0.762640
     12          1           0        3.753427    0.075820    0.100188
     13          1           0        2.659490    0.208446   -1.285886
     14          1           0        3.458644   -1.323575   -0.937306
     15          1           0        2.260394   -1.606458    1.142944
     16          1           0       -0.145479    1.913676    1.142597
     17          1           0        0.490167   -0.305304   -2.030317
     18          1           0       -0.925125   -1.257763   -1.675148
     19          1           0       -0.928781    1.275070   -1.245101
     20          1           0        1.184005   -2.373547   -1.004818
     21          1           0        0.105829   -2.161185    0.351056
     22          1           0        2.063836    0.831518    1.711138
     23          1           0        0.665664   -0.154835    2.076453
     24          1           0        1.802233    2.510254    0.190310
     25          1           0       -2.298848    1.216186    0.831718
     26          1           0       -2.040040   -1.826156    0.728177
     27          1           0       -1.362282   -0.794861    2.009001
     28          1           0       -3.097465   -0.870466    1.758275
     29          1           0       -3.107725   -0.766137   -1.349000
     30          1           0       -3.228817    1.000082   -1.455493
     31          1           0       -4.178013    0.118772   -0.256128
 ---------------------------------------------------------------------
 Rotational constants (GHZ):      1.7140653      0.7764439      0.6975821
 Standard basis: STO-3G (5D, 7F)
 There are    75 symmetry adapted basis functions of A   symmetry.
 Integral buffers will be    131072 words long.
 Raffenetti 1 integral format.
 Two-electron integral symmetry is turned on.
    75 basis functions,   225 primitive gaussians,    75 cartesian basis functions
    44 alpha electrons       44 beta electrons
       nuclear repulsion energy       704.5944284811 Hartrees.
 NAtoms=   31 NActive=   31 NUniq=   31 SFac= 1.00D+00 NAtFMM=   60 NAOKFM=F Big=F
 One-electron integrals computed using PRISM.
 NBasis=    75 RedAO= T  NBF=    75
 NBsUse=    75 1.00D-06 NBFU=    75
 Harris functional with IExCor=  205 diagonalized for initial guess.
 ExpMin= 1.69D-01 ExpMax= 1.31D+02 ExpMxC= 1.31D+02 IAcc=1 IRadAn=         1 AccDes= 0.00D+00
 HarFok:  IExCor=  205 AccDes= 0.00D+00 IRadAn=         1 IDoV= 1
 ScaDFX=  1.000000  1.000000  1.000000  1.000000
 FoFCou: FMM=F IPFlag=           0 FMFlag=      100000 FMFlg1=           0
         NFxFlg=           0 DoJE=T BraDBF=F KetDBF=T FulRan=T
         Omega=  0.000000  0.000000  1.000000  0.000000  0.000000 ICntrl=     500 IOpCl=  0
         NMat0=    1 NMatS0=    1 NMatT0=    0 NMatD0=    1 NMtDS0=    0 NMtDT0=    0
         I1Cent=           4 NGrid=           0.
 Petite list used in FoFCou.
 Initial guess orbital symmetries:
       Occupied  (A) (A) (A) (A) (A) (A) (A) (A) (A) (A) (A) (A)
                 (A) (A) (A) (A) (A) (A) (A) (A) (A) (A) (A) (A)
                 (A) (A) (A) (A) (A) (A) (A) (A) (A) (A) (A) (A)
                 (A) (A) (A) (A) (A) (A) (A) (A)
       Virtual   (A) (A) (A) (A) (A) (A) (A) (A) (A) (A) (A) (A)
                 (A) (A) (A) (A) (A) (A) (A) (A) (A) (A) (A) (A)
                 (A) (A) (A) (A) (A) (A) (A)
 The electronic state of the initial guess is 1-A.
 Requested convergence on RMS density matrix=1.00D-08 within 128 cycles.
 Requested convergence on MAX density matrix=1.00D-06.
 Requested convergence on             energy=1.00D-06.
 No special actions if energy rises.
 Keep R1 ints in memory in canonical form, NReq=4898789.
 SCF Done:  E(RHF) =  -459.610760053     A.U. after   10 cycles
             Convg  =    0.7634D-08             -V/T =  2.0089
 Range of M.O.s used for correlation:     1    75
 NBasis=    75 NAE=    44 NBE=    44 NFC=     0 NFV=     0
 NROrb=     75 NOA=    44 NOB=    44 NVA=    31 NVB=    31
          Differentiating once with respect to magnetic field using GIAOs.
          Electric field/nuclear overlap derivatives assumed to be zero.
          Keep R3 ints in memory in canonical form, NReq=4863575.
 FoFCou: FMM=F IPFlag=           0 FMFlag=           0 FMFlg1=           0
         NFxFlg=           0 DoJE=F BraDBF=F KetDBF=T FulRan=T
         Omega=  0.000000  0.000000  1.000000  0.000000  0.000000 ICntrl=    6100 IOpCl=  0
         NMat0=    1 NMatS0=    1 NMatT0=    0 NMatD0=    1 NMtDS0=    0 NMtDT0=    0
         I1Cent=           7 NGrid=          31.
 Symmetry not used in FoFCou.
          There are     3 degrees of freedom in the 1st order CPHF.  IDoFFX=0.
      3 vectors produced by pass  0 Test12= 4.55D-14 3.33D-08 XBig12= 5.94D+00 4.32D-01.
 AX will form     3 AO Fock derivatives at one time.
      3 vectors produced by pass  1 Test12= 4.55D-14 3.33D-08 XBig12= 9.47D-03 1.59D-02.
      3 vectors produced by pass  2 Test12= 4.55D-14 3.33D-08 XBig12= 7.06D-05 2.32D-03.
      3 vectors produced by pass  3 Test12= 4.55D-14 3.33D-08 XBig12= 1.62D-06 4.53D-04.
      3 vectors produced by pass  4 Test12= 4.55D-14 3.33D-08 XBig12= 2.26D-08 2.53D-05.
      3 vectors produced by pass  5 Test12= 4.55D-14 3.33D-08 XBig12= 3.19D-10 2.59D-06.
      3 vectors produced by pass  6 Test12= 4.55D-14 3.33D-08 XBig12= 2.72D-12 2.05D-07.
 Inverted reduced A of dimension    21 with in-core refinement.
 Calculating GIAO nuclear magnetic shielding tensors.
 SCF GIAO Magnetic shielding tensor (ppm):
      1  C    Isotropic =   222.3116   Anisotropy =    25.5289
   XX=   231.4828   YX=     4.0603   ZX=   -10.4935
   XY=     7.0506   YY=   216.1926   ZY=     2.7708
   XZ=   -13.5466   YZ=     2.9476   ZZ=   219.2596
   Eigenvalues:   208.1707   219.4333   239.3309
      2  C    Isotropic =   217.1059   Anisotropy =     5.2093
   XX=   219.2184   YX=     2.1241   ZX=    -3.2700
   XY=     0.7754   YY=   216.5072   ZY=     2.6128
   XZ=    -1.8759   YZ=     1.7698   ZZ=   215.5921
   Eigenvalues:   212.5349   218.2040   220.5787
      3  C    Isotropic =   187.0755   Anisotropy =    39.5747
   XX=   196.0639   YX=    17.3147   ZX=   -11.2606
   XY=    16.4740   YY=   182.4641   ZY=    -9.1966
   XZ=   -10.7433   YZ=    -6.6974   ZZ=   182.6984
   Eigenvalues:   171.0249   176.7428   213.4586
      4  C    Isotropic =   222.1621   Anisotropy =    13.4158
   XX=   221.0486   YX=    -7.3684   ZX=     0.8494
   XY=    -7.5548   YY=   224.8493   ZY=     3.8334
   XZ=    -0.7687   YZ=     1.7336   ZZ=   220.5885
   Eigenvalues:   214.7071   220.6733   231.1060
      5  C    Isotropic =   211.0929   Anisotropy =    18.9386
   XX=   220.9171   YX=     7.2399   ZX=    -1.0998
   XY=     6.7528   YY=   204.8247   ZY=    -1.8774
   XZ=    -1.6372   YZ=    -0.6794   ZZ=   207.5368
   Eigenvalues:   202.1108   207.4492   223.7186
      6  C    Isotropic =   218.8569   Anisotropy =    11.6825
   XX=   224.7005   YX=     1.0936   ZX=     3.0306
   XY=     1.0190   YY=   217.8251   ZY=     0.5067
   XZ=     5.8050   YZ=     3.8915   ZZ=   214.0452
   Eigenvalues:   211.9366   217.9889   226.6453
      7  C    Isotropic =   215.9535   Anisotropy =     8.9951
   XX=   217.8815   YX=    -3.5141   ZX=     3.0627
   XY=    -2.7077   YY=   219.5711   ZY=     2.2900
   XZ=     2.6816   YZ=     2.2590   ZZ=   210.4079
   Eigenvalues:   208.4933   217.4170   221.9502
      8  O    Isotropic =   346.8971   Anisotropy =    99.0542
   XX=   358.6412   YX=    36.2056   ZX=    34.4739
   XY=    24.6129   YY=   337.4350   ZY=    11.7773
   XZ=    58.1156   YZ=    18.4922   ZZ=   344.6151
   Eigenvalues:   301.9316   325.8265   412.9332
      9  C    Isotropic =   211.6873   Anisotropy =    19.7124
   XX=   223.4461   YX=    -0.4502   ZX=    -3.7772
   XY=     3.3817   YY=   203.8203   ZY=     0.5444
   XZ=    -5.6044   YZ=     0.0618   ZZ=   207.7955
   Eigenvalues:   203.5767   206.6562   224.8289
     10  C    Isotropic =   223.1657   Anisotropy =    18.6517
   XX=   219.9795   YX=     0.6666   ZX=    -1.6018
   XY=    -1.2619   YY=   224.8338   ZY=   -12.0508
   XZ=     0.1931   YZ=    -9.6210   ZZ=   224.6839
   Eigenvalues:   213.8406   220.0564   235.6002
     11  C    Isotropic =   220.1953   Anisotropy =    29.0525
   XX=   228.7720   YX=    -0.4904   ZX=    13.2103
   XY=     4.9006   YY=   208.8970   ZY=    -3.9658
   XZ=    13.4849   YZ=    -5.5716   ZZ=   222.9169
   Eigenvalues:   205.1520   215.8702   239.5637
     12  H    Isotropic =    32.7180   Anisotropy =    13.7407
   XX=    39.6285   YX=     4.0823   ZX=     2.2463
   XY=     4.4494   YY=    29.6214   ZY=     2.8956
   XZ=     2.1543   YZ=     2.1959   ZZ=    28.9041
   Eigenvalues:    26.5476    29.7279    41.8784
     13  H    Isotropic =    31.9729   Anisotropy =     7.8236
   XX=    32.0558   YX=    -0.8189   ZX=    -2.2094
   XY=    -0.5566   YY=    30.3436   ZY=    -4.6002
   XZ=    -1.8947   YZ=    -4.7220   ZZ=    33.5193
   Eigenvalues:    26.4438    32.2863    37.1887
     14  H    Isotropic =    32.5851   Anisotropy =    14.8049
   XX=    35.1459   YX=    -4.9609   ZX=    -4.9950
   XY=    -4.8118   YY=    32.8971   ZY=     4.1648
   XZ=    -4.8970   YZ=     4.5991   ZZ=    29.7123
   Eigenvalues:    26.2599    29.0404    42.4551
     15  H    Isotropic =    32.4770   Anisotropy =    14.7324
   XX=    31.2174   YX=    -4.3645   ZX=     3.5480
   XY=    -4.5369   YY=    33.4005   ZY=    -6.0926
   XZ=     3.8324   YZ=    -6.2673   ZZ=    32.8131
   Eigenvalues:    26.8265    28.3059    42.2986
     16  H    Isotropic =    32.0327   Anisotropy =    10.1337
   XX=    31.9666   YX=    -2.1337   ZX=    -2.0553
   XY=    -1.2098   YY=    33.6356   ZY=     4.7106
   XZ=    -3.0049   YZ=     5.8617   ZZ=    30.4958
   Eigenvalues:    26.3360    30.9736    38.7885
     17  H    Isotropic =    32.2254   Anisotropy =    12.6889
   XX=    30.8852   YX=     0.2045   ZX=    -4.5372
   XY=     0.2787   YY=    27.4335   ZY=    -1.9367
   XZ=    -4.3251   YZ=    -1.9849   ZZ=    38.3574
   Eigenvalues:    26.9716    29.0199    40.6846
     18  H    Isotropic =    32.5540   Anisotropy =    12.8196
   XX=    35.2580   YX=     2.2573   ZX=     4.6477
   XY=     2.5547   YY=    30.6045   ZY=     5.8526
   XZ=     4.3205   YZ=     5.3796   ZZ=    31.7995
   Eigenvalues:    25.3659    31.1958    41.1004
     19  H    Isotropic =    31.9499   Anisotropy =    11.5759
   XX=    31.3408   YX=    -0.7513   ZX=     2.2670
   XY=    -1.0065   YY=    32.4398   ZY=    -6.5413
   XZ=     2.4555   YZ=    -7.0217   ZZ=    32.0690
   Eigenvalues:    25.2659    30.9166    39.6671
     20  H    Isotropic =    32.5665   Anisotropy =    14.6926
   XX=    30.6529   YX=    -3.8127   ZX=    -1.4521
   XY=    -3.5829   YY=    37.1107   ZY=     6.4309
   XZ=    -1.4416   YZ=     6.7979   ZZ=    29.9359
   Eigenvalues:    25.8868    29.4512    42.3616
     21  H    Isotropic =    32.6906   Anisotropy =    11.4821
   XX=    33.9122   YX=     3.5002   ZX=    -3.5033
   XY=     3.2044   YY=    34.6234   ZY=    -4.0602
   XZ=    -3.1786   YZ=    -4.4694   ZZ=    29.5362
   Eigenvalues:    26.8062    30.9203    40.3453
     22  H    Isotropic =    32.9579   Anisotropy =    13.5199
   XX=    34.6254   YX=     3.1629   ZX=     5.4035
   XY=     3.4096   YY=    31.3779   ZY=     4.9255
   XZ=     5.2874   YZ=     4.0815   ZZ=    32.8704
   Eigenvalues:    27.2816    29.6210    41.9711
     23  H    Isotropic =    32.5336   Anisotropy =    11.5242
   XX=    31.6339   YX=     1.3021   ZX=    -3.6384
   XY=     0.9544   YY=    27.8979   ZY=    -2.7399
   XZ=    -3.1164   YZ=    -2.6840   ZZ=    38.0689
   Eigenvalues:    27.1973    30.1870    40.2164
     24  H    Isotropic =    35.1009   Anisotropy =    18.8772
   XX=    36.1517   YX=     9.9650   ZX=     3.7130
   XY=     9.5117   YY=    37.4654   ZY=     1.3680
   XZ=     4.1115   YZ=     2.8548   ZZ=    31.6854
   Eigenvalues:    26.5734    31.0435    47.6857
     25  H    Isotropic =    32.5642   Anisotropy =    11.7307
   XX=    32.1499   YX=    -2.9873   ZX=    -1.8926
   XY=    -2.4859   YY=    35.5584   ZY=     5.3391
   XZ=    -2.1004   YZ=     5.7985   ZZ=    29.9843
   Eigenvalues:    26.5297    30.7782    40.3847
     26  H    Isotropic =    32.7540   Anisotropy =     8.8022
   XX=    30.7079   YX=     0.7077   ZX=    -1.7194
   XY=     0.7713   YY=    38.4945   ZY=     1.0194
   XZ=    -1.7788   YZ=     0.7733   ZZ=    29.0596
   Eigenvalues:    27.8256    31.8143    38.6221
     27  H    Isotropic =    32.8001   Anisotropy =     9.5445
   XX=    34.9254   YX=     1.3786   ZX=     3.1344
   XY=     0.9757   YY=    26.9366   ZY=    -2.8095
   XZ=     3.1645   YZ=    -2.6178   ZZ=    36.5382
   Eigenvalues:    25.7795    33.4576    39.1631
     28  H    Isotropic =    32.5713   Anisotropy =    14.9182
   XX=    37.0913   YX=     1.5750   ZX=    -6.5558
   XY=     1.6777   YY=    27.5366   ZY=    -2.7154
   XZ=    -6.5438   YZ=    -2.7557   ZZ=    33.0860
   Eigenvalues:    26.2325    28.9647    42.5167
     29  H    Isotropic =    32.4358   Anisotropy =    10.0451
   XX=    32.2189   YX=     1.0888   ZX=     2.9588
   XY=     1.0226   YY=    32.7854   ZY=     5.5503
   XZ=     2.7795   YZ=     5.3856   ZZ=    32.3030
   Eigenvalues:    26.6993    31.4755    39.1325
     30  H    Isotropic =    32.4264   Anisotropy =    13.1026
   XX=    31.7738   YX=    -2.3327   ZX=     3.9956
   XY=    -2.2151   YY=    32.4260   ZY=    -6.0896
   XZ=     3.5385   YZ=    -6.7519   ZZ=    33.0795
   Eigenvalues:    26.1126    30.0052    41.1615
     31  H    Isotropic =    32.4186   Anisotropy =    14.5069
   XX=    41.8617   YX=    -0.3205   ZX=    -1.7580
   XY=     0.1031   YY=    26.3719   ZY=    -0.8482
   XZ=    -1.6955   YZ=    -0.6327   ZZ=    29.0222
   Eigenvalues:    26.1593    29.0066    42.0899
 End of Minotr Frequency-dependent properties file   721 does not exist.
 End of Minotr Frequency-dependent properties file   722 does not exist.

 **********************************************************************

            Population analysis using the SCF density.

 **********************************************************************

 Orbital symmetries:
       Occupied  (A) (A) (A) (A) (A) (A) (A) (A) (A) (A) (A) (A)
                 (A) (A) (A) (A) (A) (A) (A) (A) (A) (A) (A) (A)
                 (A) (A) (A) (A) (A) (A) (A) (A) (A) (A) (A) (A)
                 (A) (A) (A) (A) (A) (A) (A) (A)
       Virtual   (A) (A) (A) (A) (A) (A) (A) (A) (A) (A) (A) (A)
                 (A) (A) (A) (A) (A) (A) (A) (A) (A) (A) (A) (A)
                 (A) (A) (A) (A) (A) (A) (A)
 The electronic state is 1-A.
 Alpha  occ. eigenvalues --  -20.23276 -11.08458 -11.04782 -11.04378 -11.04207
 Alpha  occ. eigenvalues --  -11.03797 -11.03221 -11.03168 -11.03134 -11.02935
 Alpha  occ. eigenvalues --  -11.02368  -1.27496  -1.07709  -1.03463  -0.96358
 Alpha  occ. eigenvalues --   -0.94852  -0.89330  -0.88015  -0.80381  -0.77885
 Alpha  occ. eigenvalues --   -0.73352  -0.66465  -0.63216  -0.60717  -0.59192
 Alpha  occ. eigenvalues --   -0.57688  -0.56036  -0.54448  -0.53377  -0.52850
 Alpha  occ. eigenvalues --   -0.50617  -0.50056  -0.49308  -0.49233  -0.46266
 Alpha  occ. eigenvalues --   -0.46030  -0.42985  -0.42538  -0.41937  -0.40213
 Alpha  occ. eigenvalues --   -0.39149  -0.38311  -0.36612  -0.32972
 Alpha virt. eigenvalues --    0.52146   0.56262   0.58530   0.59571   0.60373
 Alpha virt. eigenvalues --    0.61165   0.61932   0.63936   0.65137   0.66579
 Alpha virt. eigenvalues --    0.68285   0.70446   0.70706   0.71346   0.71872
 Alpha virt. eigenvalues --    0.72284   0.72926   0.74747   0.75124   0.75822
 Alpha virt. eigenvalues --    0.76845   0.78425   0.80198   0.81213   0.81917
 Alpha virt. eigenvalues --    0.82141   0.83132   0.83800   0.84541   0.85447
 Alpha virt. eigenvalues --    0.86385
          Condensed to atoms (all electrons):
              1          2          3          4          5          6
     1  C    4.745388   0.364646  -0.000479  -0.001311   0.000062  -0.023883
     2  C    0.364646   4.740583  -0.019608  -0.020864  -0.003565   0.363419
     3  C   -0.000479  -0.019608   4.742597  -0.021261   0.357822  -0.004628
     4  C   -0.001311  -0.020864  -0.021261   4.752516   0.359301   0.363200
     5  C    0.000062  -0.003565   0.357822   0.359301   4.774356  -0.019612
     6  C   -0.023883   0.363419  -0.004628   0.363200  -0.019612   4.755362
     7  C   -0.023064   0.361898   0.358198  -0.004765  -0.019848  -0.023508
     8  O   -0.000829  -0.000101   0.264797  -0.000005  -0.018516   0.000043
     9  C    0.000000   0.000024  -0.019929  -0.019081   0.357962  -0.000058
    10  C    0.000000   0.000038  -0.000328  -0.001432  -0.019249  -0.000838
    11  C    0.000000   0.000000   0.000636  -0.001245  -0.022410   0.000012
    12  H    0.382075  -0.020422   0.000018   0.000002  -0.000002   0.001257
    13  H    0.382828  -0.019464  -0.000001  -0.000380   0.000025  -0.001977
    14  H    0.381796  -0.020459  -0.000010   0.000028  -0.000001  -0.001946
    15  H   -0.025954   0.383370   0.001186   0.001225   0.000009  -0.023537
    16  H   -0.000012   0.001145   0.376262   0.001054  -0.023236   0.000023
    17  H   -0.000398  -0.001330  -0.000401   0.382577  -0.022586  -0.023903
    18  H    0.000008   0.001204   0.001086   0.382402  -0.020519  -0.021984
    19  H   -0.000004   0.000011  -0.024077  -0.024845   0.379879   0.001226
    20  H   -0.003335  -0.021411   0.000018  -0.021801   0.001136   0.382412
    21  H    0.001340  -0.023067   0.000063  -0.022928  -0.000899   0.382459
    22  H   -0.003430  -0.022284  -0.021890   0.000017   0.001023   0.001240
    23  H    0.001304  -0.022265  -0.021140   0.000058  -0.000329  -0.001093
    24  H    0.000028   0.000007  -0.040498  -0.000028   0.002523  -0.000003
    25  H    0.000000  -0.000001  -0.003877   0.001046  -0.023422  -0.000016
    26  H    0.000000   0.000001  -0.000003   0.000025  -0.001149  -0.001078
    27  H    0.000000  -0.000013   0.000085   0.000025  -0.001560  -0.000196
    28  H    0.000000   0.000000  -0.000002   0.000001   0.001087   0.000018
    29  H    0.000000   0.000000  -0.000003  -0.000573  -0.001349   0.000010
    30  H    0.000000   0.000000   0.000027   0.000049  -0.002641   0.000000
    31  H    0.000000   0.000000  -0.000013   0.000007   0.001162   0.000000
              7          8          9         10         11         12
     1  C   -0.023064  -0.000829   0.000000   0.000000   0.000000   0.382075
     2  C    0.361898  -0.000101   0.000024   0.000038   0.000000  -0.020422
     3  C    0.358198   0.264797  -0.019929  -0.000328   0.000636   0.000018
     4  C   -0.004765  -0.000005  -0.019081  -0.001432  -0.001245   0.000002
     5  C   -0.019848  -0.018516   0.357962  -0.019249  -0.022410  -0.000002
     6  C   -0.023508   0.000043  -0.000058  -0.000838   0.000012   0.001257
     7  C    4.780977  -0.020161   0.000152  -0.000514  -0.000005  -0.002585
     8  O   -0.020161   7.855140   0.000230  -0.000001  -0.000001   0.000006
     9  C    0.000152   0.000230   4.741437   0.364292   0.364158   0.000000
    10  C   -0.000514  -0.000001   0.364292   4.744042  -0.027167   0.000000
    11  C   -0.000005  -0.000001   0.364158  -0.027167   4.745367   0.000000
    12  H   -0.002585   0.000006   0.000000   0.000000   0.000000   0.635811
    13  H   -0.001176   0.000287   0.000000   0.000000   0.000000  -0.021576
    14  H    0.001233   0.000012   0.000000   0.000000   0.000000  -0.021761
    15  H   -0.023925  -0.000010  -0.000001   0.000005   0.000000  -0.002052
    16  H   -0.026486  -0.019808  -0.004058   0.000061   0.000036  -0.000003
    17  H    0.000062   0.000101   0.001158   0.000000   0.000018  -0.000005
    18  H    0.000017  -0.000004  -0.003111  -0.000055  -0.000658   0.000001
    19  H    0.001150  -0.001805  -0.024273   0.001169  -0.004777   0.000000
    20  H    0.001236  -0.000001  -0.000009   0.000013   0.000000   0.000041
    21  H   -0.001180   0.000000   0.000091  -0.001476   0.000009  -0.000036
    22  H    0.380641  -0.002019  -0.000007   0.000008   0.000000   0.000237
    23  H    0.379961   0.000661  -0.000001  -0.001005  -0.000001   0.000033
    24  H   -0.003032   0.257315  -0.000037   0.000000   0.000000  -0.000032
    25  H    0.000053   0.000018   0.381400  -0.025227  -0.024756   0.000000
    26  H    0.000027   0.000000  -0.020626   0.383013  -0.002738   0.000000
    27  H   -0.001110  -0.000001  -0.019992   0.383301   0.001374   0.000000
    28  H    0.000008   0.000000  -0.020011   0.381854  -0.002460   0.000000
    29  H    0.000000   0.000000  -0.020136  -0.002391   0.382127   0.000000
    30  H    0.000000   0.000000  -0.020013   0.001331   0.382349   0.000000
    31  H    0.000000   0.000000  -0.019759  -0.002286   0.382390   0.000000
             13         14         15         16         17         18
     1  C    0.382828   0.381796  -0.025954  -0.000012  -0.000398   0.000008
     2  C   -0.019464  -0.020459   0.383370   0.001145  -0.001330   0.001204
     3  C   -0.000001  -0.000010   0.001186   0.376262  -0.000401   0.001086
     4  C   -0.000380   0.000028   0.001225   0.001054   0.382577   0.382402
     5  C    0.000025  -0.000001   0.000009  -0.023236  -0.022586  -0.020519
     6  C   -0.001977  -0.001946  -0.023537   0.000023  -0.023903  -0.021984
     7  C   -0.001176   0.001233  -0.023925  -0.026486   0.000062   0.000017
     8  O    0.000287   0.000012  -0.000010  -0.019808   0.000101  -0.000004
     9  C    0.000000   0.000000  -0.000001  -0.004058   0.001158  -0.003111
    10  C    0.000000   0.000000   0.000005   0.000061   0.000000  -0.000055
    11  C    0.000000   0.000000   0.000000   0.000036   0.000018  -0.000658
    12  H   -0.021576  -0.021761  -0.002052  -0.000003  -0.000005   0.000001
    13  H    0.615679  -0.022054   0.001931   0.000003  -0.000494  -0.000005
    14  H   -0.022054   0.635076  -0.003165   0.000001   0.000041  -0.000003
    15  H    0.001931  -0.003165   0.654768  -0.000032  -0.000008  -0.000030
    16  H    0.000003   0.000001  -0.000032   0.662694  -0.000009  -0.000028
    17  H   -0.000494   0.000041  -0.000008  -0.000009   0.640810  -0.023891
    18  H   -0.000005  -0.000003  -0.000030  -0.000028  -0.023891   0.639861
    19  H    0.000005   0.000000   0.000003  -0.000449  -0.005883  -0.000476
    20  H    0.000005   0.000177  -0.001255   0.000002  -0.003404  -0.001674
    21  H    0.000003   0.000024  -0.004001  -0.000009   0.002042  -0.003086
    22  H    0.000015   0.000043  -0.001218  -0.001298  -0.000006   0.000002
    23  H   -0.000008  -0.000036  -0.004280  -0.002948   0.000002  -0.000006
    24  H   -0.000188   0.000000  -0.000004  -0.003678  -0.000014   0.000001
    25  H    0.000000   0.000000   0.000000   0.000175  -0.000030   0.000030
    26  H    0.000000   0.000000   0.000001   0.000001  -0.000003  -0.000030
    27  H    0.000000   0.000000   0.000006   0.000051  -0.000004   0.000020
    28  H    0.000000   0.000000   0.000000  -0.000010   0.000000  -0.000011
    29  H    0.000000   0.000000   0.000000   0.000000  -0.000017  -0.000379
    30  H    0.000000   0.000000   0.000000   0.000004  -0.000007   0.000036
    31  H    0.000000   0.000000   0.000000  -0.000002   0.000001  -0.000010
             19         20         21         22         23         24
     1  C   -0.000004  -0.003335   0.001340  -0.003430   0.001304   0.000028
     2  C    0.000011  -0.021411  -0.023067  -0.022284  -0.022265   0.000007
     3  C   -0.024077   0.000018   0.000063  -0.021890  -0.021140  -0.040498
     4  C   -0.024845  -0.021801  -0.022928   0.000017   0.000058  -0.000028
     5  C    0.379879   0.001136  -0.000899   0.001023  -0.000329   0.002523
     6  C    0.001226   0.382412   0.382459   0.001240  -0.001093  -0.000003
     7  C    0.001150   0.001236  -0.001180   0.380641   0.379961  -0.003032
     8  O   -0.001805  -0.000001   0.000000  -0.002019   0.000661   0.257315
     9  C   -0.024273  -0.000009   0.000091  -0.000007  -0.000001  -0.000037
    10  C    0.001169   0.000013  -0.001476   0.000008  -0.001005   0.000000
    11  C   -0.004777   0.000000   0.000009   0.000000  -0.000001   0.000000
    12  H    0.000000   0.000041  -0.000036   0.000237   0.000033  -0.000032
    13  H    0.000005   0.000005   0.000003   0.000015  -0.000008  -0.000188
    14  H    0.000000   0.000177   0.000024   0.000043  -0.000036   0.000000
    15  H    0.000003  -0.001255  -0.004001  -0.001218  -0.004280  -0.000004
    16  H   -0.000449   0.000002  -0.000009  -0.001298  -0.002948  -0.003678
    17  H   -0.005883  -0.003404   0.002042  -0.000006   0.000002  -0.000014
    18  H   -0.000476  -0.001674  -0.003086   0.000002  -0.000006   0.000001
    19  H    0.643769  -0.000031  -0.000013  -0.000035  -0.000005   0.000142
    20  H   -0.000031   0.642145  -0.024057  -0.000034   0.000002   0.000000
    21  H   -0.000013  -0.024057   0.647081   0.000003   0.000160   0.000000
    22  H   -0.000035  -0.000034   0.000003   0.645453  -0.022939   0.000562
    23  H   -0.000005   0.000002   0.000160  -0.022939   0.642736  -0.000001
    24  H    0.000142   0.000000   0.000000   0.000562  -0.000001   0.612922
    25  H   -0.001322   0.000001  -0.000006  -0.000004   0.000024  -0.000005
    26  H   -0.000002   0.000028  -0.000876   0.000000   0.000008   0.000000
    27  H    0.000006   0.000004  -0.000319   0.000016  -0.000546   0.000000
    28  H   -0.000032   0.000000   0.000034   0.000000   0.000012   0.000000
    29  H    0.000026   0.000001   0.000001   0.000000   0.000000   0.000000
    30  H    0.000068   0.000000   0.000000   0.000000   0.000000   0.000000
    31  H    0.000070   0.000000   0.000000   0.000000   0.000000   0.000000
             25         26         27         28         29         30
     1  C    0.000000   0.000000   0.000000   0.000000   0.000000   0.000000
     2  C   -0.000001   0.000001  -0.000013   0.000000   0.000000   0.000000
     3  C   -0.003877  -0.000003   0.000085  -0.000002  -0.000003   0.000027
     4  C    0.001046   0.000025   0.000025   0.000001  -0.000573   0.000049
     5  C   -0.023422  -0.001149  -0.001560   0.001087  -0.001349  -0.002641
     6  C   -0.000016  -0.001078  -0.000196   0.000018   0.000010   0.000000
     7  C    0.000053   0.000027  -0.001110   0.000008   0.000000   0.000000
     8  O    0.000018   0.000000  -0.000001   0.000000   0.000000   0.000000
     9  C    0.381400  -0.020626  -0.019992  -0.020011  -0.020136  -0.020013
    10  C   -0.025227   0.383013   0.383301   0.381854  -0.002391   0.001331
    11  C   -0.024756  -0.002738   0.001374  -0.002460   0.382127   0.382349
    12  H    0.000000   0.000000   0.000000   0.000000   0.000000   0.000000
    13  H    0.000000   0.000000   0.000000   0.000000   0.000000   0.000000
    14  H    0.000000   0.000000   0.000000   0.000000   0.000000   0.000000
    15  H    0.000000   0.000001   0.000006   0.000000   0.000000   0.000000
    16  H    0.000175   0.000001   0.000051  -0.000010   0.000000   0.000004
    17  H   -0.000030  -0.000003  -0.000004   0.000000  -0.000017  -0.000007
    18  H    0.000030  -0.000030   0.000020  -0.000011  -0.000379   0.000036
    19  H   -0.001322  -0.000002   0.000006  -0.000032   0.000026   0.000068
    20  H    0.000001   0.000028   0.000004   0.000000   0.000001   0.000000
    21  H   -0.000006  -0.000876  -0.000319   0.000034   0.000001   0.000000
    22  H   -0.000004   0.000000   0.000016   0.000000   0.000000   0.000000
    23  H    0.000024   0.000008  -0.000546   0.000012   0.000000   0.000000
    24  H   -0.000005   0.000000   0.000000   0.000000   0.000000   0.000000
    25  H    0.654559   0.001964  -0.001845  -0.003121   0.001923  -0.002116
    26  H    0.001964   0.629150  -0.021405  -0.022258   0.000365   0.000019
    27  H   -0.001845  -0.021405   0.630946  -0.022355   0.000012  -0.000038
    28  H   -0.003121  -0.022258  -0.022355   0.632649  -0.000011   0.000032
    29  H    0.001923   0.000365   0.000012  -0.000011   0.631045  -0.021671
    30  H   -0.002116   0.000019  -0.000038   0.000032  -0.021671   0.630636
    31  H   -0.002830  -0.000022   0.000029   0.000034  -0.022025  -0.021847
             31
     1  C    0.000000
     2  C    0.000000
     3  C   -0.000013
     4  C    0.000007
     5  C    0.001162
     6  C    0.000000
     7  C    0.000000
     8  O    0.000000
     9  C   -0.019759
    10  C   -0.002286
    11  C    0.382390
    12  H    0.000000
    13  H    0.000000
    14  H    0.000000
    15  H    0.000000
    16  H   -0.000002
    17  H    0.000001
    18  H   -0.000010
    19  H    0.000070
    20  H    0.000000
    21  H    0.000000
    22  H    0.000000
    23  H    0.000000
    24  H    0.000000
    25  H   -0.002830
    26  H   -0.000022
    27  H    0.000029
    28  H    0.000034
    29  H   -0.022025
    30  H   -0.021847
    31  H    0.631787
 Mulliken atomic charges:
              1
     1  C   -0.176776
     2  C   -0.021490
     3  C    0.075357
     4  C   -0.103014
     5  C   -0.035454
     6  C   -0.102418
     7  C   -0.114255
     8  O   -0.315347
     9  C   -0.019802
    10  C   -0.177156
    11  C   -0.172258
    12  H    0.048994
    13  H    0.066542
    14  H    0.051006
    15  H    0.046969
    16  H    0.040554
    17  H    0.055580
    18  H    0.051292
    19  H    0.060506
    20  H    0.049793
    21  H    0.048642
    22  H    0.045904
    23  H    0.051642
    24  H    0.174018
    25  H    0.047387
    26  H    0.055588
    27  H    0.053508
    28  H    0.054543
    29  H    0.053045
    30  H    0.053782
    31  H    0.053316
 Sum of Mulliken atomic charges =   0.00000
 Mulliken charges with hydrogens summed into heavy atoms:
              1
     1  C   -0.010234
     2  C    0.025479
     3  C    0.115911
     4  C    0.003859
     5  C    0.025052
     6  C   -0.003983
     7  C   -0.016708
     8  O   -0.141329
     9  C    0.027584
    10  C   -0.013516
    11  C   -0.012115
 Sum of Mulliken charges with hydrogens summed into heavy atoms =   0.00000
 Electronic spatial extent (au):  <R**2>=           1958.6193
 Charge=              0.0000 electrons
 Dipole moment (field-independent basis, Debye):
    X=             -0.0469    Y=             -0.1610    Z=              1.2745  Tot=              1.2855
 Quadrupole moment (field-independent basis, Debye-Ang):
   XX=            -66.8127   YY=            -67.4727   ZZ=            -67.8304
   XY=              0.8051   XZ=              1.6567   YZ=              3.0988
 Traceless Quadrupole moment (field-independent basis, Debye-Ang):
   XX=              0.5592   YY=             -0.1008   ZZ=             -0.4584
   XY=              0.8051   XZ=              1.6567   YZ=              3.0988
 Octapole moment (field-independent basis, Debye-Ang**2):
  XXX=              8.4386  YYY=             13.8738  ZZZ=             -2.4901  XYY=              6.2072
  XXY=              8.3502  XXZ=              3.9987  XZZ=              2.2082  YZZ=              3.4762
  YYZ=              4.7801  XYZ=              3.9535
 Hexadecapole moment (field-independent basis, Debye-Ang**3):
 XXXX=          -1567.9453 YYYY=           -513.6731 ZZZZ=           -393.1990 XXXY=             26.6115
 XXXZ=             -4.5778 YYYX=             26.0426 YYYZ=             12.5399 ZZZX=             -3.0625
 ZZZY=             -4.8435 XXYY=           -333.4007 XXZZ=           -327.2624 YYZZ=           -152.1731
 XXYZ=              6.7504 YYXZ=              9.0559 ZZXY=              2.4868
 N-N= 7.045944284811D+02 E-N=-2.481306933680D+03  KE= 4.555522419734D+02
 ******************************Gaussian NBO Version 3.1******************************
             N A T U R A L   A T O M I C   O R B I T A L   A N D
          N A T U R A L   B O N D   O R B I T A L   A N A L Y S I S
 ******************************Gaussian NBO Version 3.1******************************
       /RESON  / : Allow strongly delocalized NBO set
       /NLMO   / : Form Natural Localized Molecular Orbitals
       /NMR /    : Analyze NMR Sheilding Tensor 

 Analyzing the SCF density

 Job title: comment                                                         

 Storage needed:     19864 in NPA,     23691 in NBO,     45933 in NLMO (  33549317 available)


 NATURAL POPULATIONS:  Natural atomic orbital occupancies 
                                                          
   NAO  Atom  No  lang   Type(AO)    Occupancy      Energy
 ----------------------------------------------------------
     1    C    1  S      Cor( 1S)     1.99997     -10.95724
     2    C    1  S      Val( 2S)     1.08022      -0.17489
     3    C    1  px     Val( 2p)     1.00352       0.09231
     4    C    1  py     Val( 2p)     1.02847       0.09063
     5    C    1  pz     Val( 2p)     1.02026       0.09252

     6    C    2  S      Cor( 1S)     1.99997     -10.98636
     7    C    2  S      Val( 2S)     1.07826      -0.18777
     8    C    2  px     Val( 2p)     0.95962       0.11444
     9    C    2  py     Val( 2p)     0.97183       0.10815
    10    C    2  pz     Val( 2p)     0.97318       0.10932

    11    C    3  S      Cor( 1S)     1.99989     -11.03381
    12    C    3  S      Val( 2S)     1.09089      -0.21768
    13    C    3  px     Val( 2p)     0.92170       0.09880
    14    C    3  py     Val( 2p)     0.92904       0.09715
    15    C    3  pz     Val( 2p)     0.91409       0.10828

    16    C    4  S      Cor( 1S)     1.99995     -10.97087
    17    C    4  S      Val( 2S)     1.08309      -0.18379
    18    C    4  px     Val( 2p)     1.00479       0.09805
    19    C    4  py     Val( 2p)     0.98170       0.10685
    20    C    4  pz     Val( 2p)     0.99664       0.09617

    21    C    5  S      Cor( 1S)     1.99994     -10.98807
    22    C    5  S      Val( 2S)     1.10222      -0.20912
    23    C    5  px     Val( 2p)     0.95024       0.11255
    24    C    5  py     Val( 2p)     0.98375       0.10074
    25    C    5  pz     Val( 2p)     0.97773       0.10328

    26    C    6  S      Cor( 1S)     1.99996     -10.96904
    27    C    6  S      Val( 2S)     1.08115      -0.18091
    28    C    6  px     Val( 2p)     0.99273       0.09974
    29    C    6  py     Val( 2p)     0.99078       0.10000
    30    C    6  pz     Val( 2p)     1.00131       0.10151

    31    C    7  S      Cor( 1S)     1.99996     -10.97615
    32    C    7  S      Val( 2S)     1.09132      -0.19773
    33    C    7  px     Val( 2p)     1.00462       0.08878
    34    C    7  py     Val( 2p)     0.99672       0.08826
    35    C    7  pz     Val( 2p)     0.99788       0.08661

    36    O    8  S      Cor( 1S)     1.99999     -20.13733
    37    O    8  S      Val( 2S)     1.75167      -0.99732
    38    O    8  px     Val( 2p)     1.48295      -0.16380
    39    O    8  py     Val( 2p)     1.59837      -0.21227
    40    O    8  pz     Val( 2p)     1.50408      -0.18944

    41    C    9  S      Cor( 1S)     1.99996     -10.99194
    42    C    9  S      Val( 2S)     1.08566      -0.19738
    43    C    9  px     Val( 2p)     0.95264       0.10808
    44    C    9  py     Val( 2p)     0.97922       0.10663
    45    C    9  pz     Val( 2p)     0.96086       0.10974

    46    C   10  S      Cor( 1S)     1.99997     -10.96470
    47    C   10  S      Val( 2S)     1.07890      -0.18038
    48    C   10  px     Val( 2p)     1.03168       0.08051
    49    C   10  py     Val( 2p)     1.00968       0.08580
    50    C   10  pz     Val( 2p)     1.01369       0.08589

    51    C   11  S      Cor( 1S)     1.99997     -10.96333
    52    C   11  S      Val( 2S)     1.08220      -0.18210
    53    C   11  px     Val( 2p)     1.00618       0.08680
    54    C   11  py     Val( 2p)     1.02789       0.08651
    55    C   11  pz     Val( 2p)     1.01131       0.08739

    56    H   12  S      Val( 1S)     0.96759       0.07683

    57    H   13  S      Val( 1S)     0.95231       0.09446

    58    H   14  S      Val( 1S)     0.96581       0.07877

    59    H   15  S      Val( 1S)     0.97712       0.06794

    60    H   16  S      Val( 1S)     0.99528       0.04865

    61    H   17  S      Val( 1S)     0.96584       0.08222

    62    H   18  S      Val( 1S)     0.96958       0.07607

    63    H   19  S      Val( 1S)     0.96537       0.07781

    64    H   20  S      Val( 1S)     0.97037       0.07447

    65    H   21  S      Val( 1S)     0.97249       0.07767

    66    H   22  S      Val( 1S)     0.97345       0.06073

    67    H   23  S      Val( 1S)     0.96867       0.07104

    68    H   24  S      Val( 1S)     0.81362       0.07569

    69    H   25  S      Val( 1S)     0.97797       0.06552

    70    H   26  S      Val( 1S)     0.96154       0.07740

    71    H   27  S      Val( 1S)     0.96402       0.07825

    72    H   28  S      Val( 1S)     0.96209       0.07399

    73    H   29  S      Val( 1S)     0.96470       0.07704

    74    H   30  S      Val( 1S)     0.96389       0.07711

    75    H   31  S      Val( 1S)     0.96405       0.07478


 Summary of Natural Population Analysis:                  
                                                          
                                       Natural Population 
                Natural  -----------------------------------------------
    Atom  No    Charge         Core      Valence    Rydberg      Total
 -----------------------------------------------------------------------
      C    1   -0.13243      1.99997     4.13246    0.00000     6.13243
      C    2    0.01715      1.99997     3.98289    0.00000     5.98285
      C    3    0.14440      1.99989     3.85571    0.00000     5.85560
      C    4   -0.06617      1.99995     4.06621    0.00000     6.06617
      C    5   -0.01389      1.99994     4.01394    0.00000     6.01389
      C    6   -0.06593      1.99996     4.06597    0.00000     6.06593
      C    7   -0.09050      1.99996     4.09054    0.00000     6.09050
      O    8   -0.33706      1.99999     6.33707    0.00000     8.33706
      C    9    0.02166      1.99996     3.97838    0.00000     5.97834
      C   10   -0.13392      1.99997     4.13395    0.00000     6.13392
      C   11   -0.12756      1.99997     4.12760    0.00000     6.12756
      H   12    0.03241      0.00000     0.96759    0.00000     0.96759
      H   13    0.04769      0.00000     0.95231    0.00000     0.95231
      H   14    0.03419      0.00000     0.96581    0.00000     0.96581
      H   15    0.02288      0.00000     0.97712    0.00000     0.97712
      H   16    0.00472      0.00000     0.99528    0.00000     0.99528
      H   17    0.03416      0.00000     0.96584    0.00000     0.96584
      H   18    0.03042      0.00000     0.96958    0.00000     0.96958
      H   19    0.03463      0.00000     0.96537    0.00000     0.96537
      H   20    0.02963      0.00000     0.97037    0.00000     0.97037
      H   21    0.02751      0.00000     0.97249    0.00000     0.97249
      H   22    0.02655      0.00000     0.97345    0.00000     0.97345
      H   23    0.03133      0.00000     0.96867    0.00000     0.96867
      H   24    0.18638      0.00000     0.81362    0.00000     0.81362
      H   25    0.02203      0.00000     0.97797    0.00000     0.97797
      H   26    0.03846      0.00000     0.96154    0.00000     0.96154
      H   27    0.03598      0.00000     0.96402    0.00000     0.96402
      H   28    0.03791      0.00000     0.96209    0.00000     0.96209
      H   29    0.03530      0.00000     0.96470    0.00000     0.96470
      H   30    0.03611      0.00000     0.96389    0.00000     0.96389
      H   31    0.03595      0.00000     0.96405    0.00000     0.96405
 =======================================================================
   * Total *    0.00000     21.99953    66.00047    0.00000    88.00000

                                 Natural Population      
 --------------------------------------------------------
   Core                      21.99953 ( 99.9978% of  22)
   Valence                   66.00047 (100.0007% of  66)
   Natural Minimal Basis     88.00000 (100.0000% of  88)
   Natural Rydberg Basis      0.00000 (  0.0000% of  88)
 --------------------------------------------------------

    Atom  No          Natural Electron Configuration
 ----------------------------------------------------------------------------
      C    1      [core]2S( 1.08)2p( 3.05)
      C    2      [core]2S( 1.08)2p( 2.90)
      C    3      [core]2S( 1.09)2p( 2.76)
      C    4      [core]2S( 1.08)2p( 2.98)
      C    5      [core]2S( 1.10)2p( 2.91)
      C    6      [core]2S( 1.08)2p( 2.98)
      C    7      [core]2S( 1.09)2p( 3.00)
      O    8      [core]2S( 1.75)2p( 4.59)
      C    9      [core]2S( 1.09)2p( 2.89)
      C   10      [core]2S( 1.08)2p( 3.06)
      C   11      [core]2S( 1.08)2p( 3.05)
      H   12            1S( 0.97)
      H   13            1S( 0.95)
      H   14            1S( 0.97)
      H   15            1S( 0.98)
      H   16            1S( 1.00)
      H   17            1S( 0.97)
      H   18            1S( 0.97)
      H   19            1S( 0.97)
      H   20            1S( 0.97)
      H   21            1S( 0.97)
      H   22            1S( 0.97)
      H   23            1S( 0.97)
      H   24            1S( 0.81)
      H   25            1S( 0.98)
      H   26            1S( 0.96)
      H   27            1S( 0.96)
      H   28            1S( 0.96)
      H   29            1S( 0.96)
      H   30            1S( 0.96)
      H   31            1S( 0.96)


 NATURAL BOND ORBITAL ANALYSIS:

                       Occupancies       Lewis Structure    Low   High
           Occ.    -------------------  -----------------   occ   occ
  Cycle   Thresh.   Lewis   Non-Lewis     CR  BD  3C  LP    (L)   (NL)   Dev
 =============================================================================
   1(1)    1.90    87.63534   0.36466     11  31   0   2     0      0    0.02
 -----------------------------------------------------------------------------

 Structure accepted: No low occupancy Lewis orbitals

 --------------------------------------------------------
   Core                     21.99952 ( 99.998% of  22)
   Valence Lewis            65.63582 ( 99.448% of  66)
  ==================       ============================
   Total Lewis              87.63534 ( 99.586% of  88)
  -----------------------------------------------------
   Valence non-Lewis         0.36466 (  0.414% of  88)
   Rydberg non-Lewis         0.00000 (  0.000% of  88)
  ==================       ============================
   Total non-Lewis           0.36466 (  0.414% of  88)
 --------------------------------------------------------


       (Occupancy)   Bond orbital/ Coefficients/ Hybrids
 ---------------------------------------------------------------------------------
     1. (1.99062) BD ( 1) C   1 - C   2  
                ( 50.75%)   0.7124* C   1 s( 25.84%)p 2.87( 74.16%)
                                            0.0001  0.5083 -0.6583 -0.2342  0.5034
                ( 49.25%)   0.7018* C   2 s( 25.25%)p 2.96( 74.75%)
                                            0.0000  0.5025  0.6266  0.2759 -0.5280
     2. (1.99476) BD ( 1) C   1 - H  12  
                ( 51.63%)   0.7185* C   1 s( 24.66%)p 3.06( 75.34%)
                                            0.0000  0.4966  0.5970  0.4164  0.4729
                ( 48.37%)   0.6955* H  12 s(100.00%)
                                            1.0000
     3. (1.99546) BD ( 1) C   1 - H  13  
                ( 52.47%)   0.7244* C   1 s( 25.07%)p 2.99( 74.93%)
                                            0.0000  0.5007 -0.2812  0.5222 -0.6305
                ( 47.53%)   0.6894* H  13 s(100.00%)
                                            1.0000
     4. (1.99477) BD ( 1) C   1 - H  14  
                ( 51.71%)   0.7191* C   1 s( 24.43%)p 3.09( 75.57%)
                                            0.0000  0.4943  0.3622 -0.7064 -0.3542
                ( 48.29%)   0.6949* H  14 s(100.00%)
                                            1.0000
     5. (1.98524) BD ( 1) C   2 - C   6  
                ( 49.70%)   0.7050* C   2 s( 25.24%)p 2.96( 74.76%)
                                            0.0000  0.5024 -0.6203 -0.3881 -0.4607
                ( 50.30%)   0.7092* C   6 s( 25.45%)p 2.93( 74.55%)
                                            0.0001  0.5045  0.6146  0.4311  0.4265
     6. (1.98511) BD ( 1) C   2 - C   7  
                ( 49.17%)   0.7012* C   2 s( 25.20%)p 2.97( 74.80%)
                                            0.0000  0.5020 -0.3339  0.6708  0.4319
                ( 50.83%)   0.7129* C   7 s( 25.49%)p 2.92( 74.51%)
                                            0.0001  0.5049  0.3191 -0.6332 -0.4922
     7. (1.98424) BD ( 1) C   2 - H  15  
                ( 51.02%)   0.7143* C   2 s( 24.31%)p 3.11( 75.69%)
                                            0.0000  0.4931  0.3334 -0.5686  0.5678
                ( 48.98%)   0.6999* H  15 s(100.00%)
                                            1.0000
     8. (1.98111) BD ( 1) C   3 - C   5  
                ( 50.75%)   0.7124* C   3 s( 26.90%)p 2.72( 73.10%)
                                            0.0000  0.5187 -0.5641 -0.4030 -0.5003
                ( 49.25%)   0.7018* C   5 s( 25.19%)p 2.97( 74.81%)
                                            0.0001  0.5019  0.5855  0.3384  0.5393
     9. (1.98880) BD ( 1) C   3 - C   7  
                ( 49.32%)   0.7022* C   3 s( 26.08%)p 2.83( 73.92%)
                                            0.0000  0.5107  0.4900 -0.5612  0.4291
                ( 50.68%)   0.7119* C   7 s( 25.51%)p 2.92( 74.49%)
                                            0.0000  0.5051 -0.5004  0.5192 -0.4743
    10. (1.98846) BD ( 1) C   3 - O   8  
                ( 40.94%)   0.6399* C   3 s( 21.50%)p 3.65( 78.50%)
                                            0.0000  0.4637  0.5292  0.4922 -0.5125
                ( 59.06%)   0.7685* O   8 s( 16.24%)p 5.16( 83.76%)
                                            0.0000  0.4030 -0.4962 -0.5033  0.5814
    11. (1.98837) BD ( 1) C   3 - H  16  
                ( 50.50%)   0.7107* C   3 s( 25.51%)p 2.92( 74.49%)
                                            0.0000  0.5051 -0.4020  0.5295  0.5504
                ( 49.50%)   0.7035* H  16 s(100.00%)
                                            1.0000
    12. (1.98535) BD ( 1) C   4 - C   5  
                ( 50.19%)   0.7084* C   4 s( 25.60%)p 2.91( 74.40%)
                                            0.0001  0.5060 -0.3207  0.6579  0.4564
                ( 49.81%)   0.7058* C   5 s( 25.68%)p 2.89( 74.32%)
                                            0.0000  0.5068  0.3156 -0.7136 -0.3666
    13. (1.99098) BD ( 1) C   4 - C   6  
                ( 49.92%)   0.7066* C   4 s( 25.42%)p 2.93( 74.58%)
                                            0.0000  0.5041  0.4762 -0.5093  0.5097
                ( 50.08%)   0.7077* C   6 s( 25.56%)p 2.91( 74.44%)
                                            0.0000  0.5056 -0.4778  0.5485 -0.4640
    14. (1.98979) BD ( 1) C   4 - H  17  
                ( 51.68%)   0.7189* C   4 s( 24.08%)p 3.15( 75.92%)
                                            0.0000  0.4907  0.5005  0.3117 -0.6415
                ( 48.32%)   0.6951* H  17 s(100.00%)
                                            1.0000
    15. (1.98852) BD ( 1) C   4 - H  18  
                ( 51.49%)   0.7175* C   4 s( 24.90%)p 3.02( 75.10%)
                                            0.0000  0.4990 -0.6480 -0.4591 -0.3469
                ( 48.51%)   0.6965* H  18 s(100.00%)
                                            1.0000
    16. (1.97923) BD ( 1) C   5 - C   9  
                ( 50.02%)   0.7072* C   5 s( 25.58%)p 2.91( 74.42%)
                                            0.0001  0.5058 -0.7247 -0.1827  0.4308
                ( 49.98%)   0.7070* C   9 s( 25.60%)p 2.91( 74.40%)
                                            0.0001  0.5060  0.7674  0.0774 -0.3861
    17. (1.98108) BD ( 1) C   5 - H  19  
                ( 51.54%)   0.7179* C   5 s( 23.55%)p 3.25( 76.45%)
                                            0.0000  0.4853 -0.1798  0.5856 -0.6239
                ( 48.46%)   0.6961* H  19 s(100.00%)
                                            1.0000
    18. (1.98940) BD ( 1) C   6 - H  20  
                ( 51.45%)   0.7173* C   6 s( 24.66%)p 3.06( 75.34%)
                                            0.0000  0.4965  0.3675 -0.5835 -0.5271
                ( 48.55%)   0.6968* H  20 s(100.00%)
                                            1.0000
    19. (1.99022) BD ( 1) C   6 - H  21  
                ( 51.41%)   0.7170* C   6 s( 24.33%)p 3.11( 75.67%)
                                            0.0000  0.4933 -0.5089 -0.4157  0.5700
                ( 48.59%)   0.6971* H  21 s(100.00%)
                                            1.0000
    20. (1.98732) BD ( 1) C   7 - H  22  
                ( 51.27%)   0.7160* C   7 s( 24.69%)p 3.05( 75.31%)
                                            0.0000  0.4969  0.6522  0.4584  0.3429
                ( 48.73%)   0.6981* H  22 s(100.00%)
                                            1.0000
    21. (1.98738) BD ( 1) C   7 - H  23  
                ( 51.50%)   0.7177* C   7 s( 24.30%)p 3.11( 75.70%)
                                            0.0000  0.4930 -0.4716 -0.3454  0.6444
                ( 48.50%)   0.6964* H  23 s(100.00%)
                                            1.0000
    22. (1.98967) BD ( 1) O   8 - H  24  
                ( 59.34%)   0.7703* O   8 s( 16.80%)p 4.95( 83.20%)
                                            0.0000  0.4098  0.5686  0.4273  0.5711
                ( 40.66%)   0.6376* H  24 s(100.00%)
                                            1.0000
    23. (1.99055) BD ( 1) C   9 - C  10  
                ( 48.99%)   0.6999* C   9 s( 25.58%)p 2.91( 74.42%)
                                            0.0000  0.5058  0.0036 -0.6773  0.5342
                ( 51.01%)   0.7142* C  10 s( 25.96%)p 2.85( 74.04%)
                                            0.0001  0.5095  0.0524  0.6552 -0.5553
    24. (1.98902) BD ( 1) C   9 - C  11  
                ( 49.03%)   0.7002* C   9 s( 24.62%)p 3.06( 75.38%)
                                            0.0000  0.4962 -0.6184 -0.1061 -0.6001
                ( 50.97%)   0.7139* C  11 s( 25.73%)p 2.89( 74.27%)
                                            0.0001  0.5072  0.6444  0.0808  0.5665
    25. (1.98366) BD ( 1) C   9 - H  25  
                ( 50.98%)   0.7140* C   9 s( 24.19%)p 3.13( 75.81%)
                                            0.0000  0.4919 -0.1693  0.7239  0.4532
                ( 49.02%)   0.7001* H  25 s(100.00%)
                                            1.0000
    26. (1.99432) BD ( 1) C  10 - H  26  
                ( 51.96%)   0.7208* C  10 s( 24.87%)p 3.02( 75.13%)
                                            0.0000  0.4987  0.0847 -0.7523 -0.4221
                ( 48.04%)   0.6931* H  26 s(100.00%)
                                            1.0000
    27. (1.99389) BD ( 1) C  10 - H  27  
                ( 51.83%)   0.7200* C  10 s( 24.96%)p 3.01( 75.04%)
                                            0.0000  0.4996  0.6248  0.0670  0.5963
                ( 48.17%)   0.6940* H  27 s(100.00%)
                                            1.0000
    28. (1.99394) BD ( 1) C  10 - H  28  
                ( 51.88%)   0.7203* C  10 s( 24.21%)p 3.13( 75.79%)
                                            0.0000  0.4921 -0.7744  0.0161  0.3974
                ( 48.12%)   0.6937* H  28 s(100.00%)
                                            1.0000
    29. (1.99500) BD ( 1) C  11 - H  29  
                ( 51.82%)   0.7198* C  11 s( 24.91%)p 3.02( 75.09%)
                                            0.0000  0.4991  0.0990 -0.7306 -0.4553
                ( 48.18%)   0.6941* H  29 s(100.00%)
                                            1.0000
    30. (1.99508) BD ( 1) C  11 - H  30  
                ( 51.83%)   0.7199* C  11 s( 24.72%)p 3.05( 75.28%)
                                            0.0000  0.4972  0.0003  0.6774 -0.5421
                ( 48.17%)   0.6941* H  30 s(100.00%)
                                            1.0000
    31. (1.99469) BD ( 1) C  11 - H  31  
                ( 51.79%)   0.7197* C  11 s( 24.65%)p 3.06( 75.35%)
                                            0.0000  0.4964 -0.7582 -0.0265  0.4218
                ( 48.21%)   0.6943* H  31 s(100.00%)
                                            1.0000
    32. (1.99997) CR ( 1) C   1           s(100.00%)
                                            1.0000  0.0000  0.0001  0.0000  0.0000
    33. (1.99997) CR ( 1) C   2           s(100.00%)
                                            1.0000  0.0000  0.0000  0.0000  0.0000
    34. (1.99989) CR ( 1) C   3           s(100.00%)
                                            1.0000  0.0000  0.0000  0.0001  0.0000
    35. (1.99995) CR ( 1) C   4           s(100.00%)
                                            1.0000  0.0000  0.0000  0.0000 -0.0001
    36. (1.99994) CR ( 1) C   5           s(100.00%)
                                            1.0000 -0.0001  0.0000  0.0000 -0.0001
    37. (1.99996) CR ( 1) C   6           s(100.00%)
                                            1.0000  0.0000  0.0000 -0.0001  0.0000
    38. (1.99996) CR ( 1) C   7           s(100.00%)
                                            1.0000  0.0000  0.0000  0.0001  0.0000
    39. (1.99999) CR ( 1) O   8           s(100.00%)
                                            1.0000  0.0000  0.0000  0.0000  0.0000
    40. (1.99996) CR ( 1) C   9           s(100.00%)
                                            1.0000  0.0000 -0.0001  0.0000  0.0000
    41. (1.99997) CR ( 1) C  10           s(100.00%)
                                            1.0000  0.0000 -0.0001  0.0000  0.0001
    42. (1.99997) CR ( 1) C  11           s(100.00%)
                                            1.0000  0.0000 -0.0001  0.0000  0.0000
    43. (1.99326) LP ( 1) O   8           s( 66.96%)p 0.49( 33.04%)
                                            0.0000  0.8183 -0.0367  0.0298 -0.5729
    44. (1.97653) LP ( 2) O   8           s(  0.00%)p 1.00(100.00%)
                                            0.0000  0.0045 -0.6551  0.7505  0.0875
    45. (0.01125) BD*( 1) C   1 - C   2  
                ( 49.25%)   0.7018* C   1 s( 25.84%)p 2.87( 74.16%)
                                           -0.0001 -0.5083  0.6583  0.2342 -0.5034
                ( 50.75%)  -0.7124* C   2 s( 25.25%)p 2.96( 74.75%)
                                            0.0000 -0.5025 -0.6266 -0.2759  0.5280
    46. (0.00512) BD*( 1) C   1 - H  12  
                ( 48.37%)   0.6955* C   1 s( 24.66%)p 3.06( 75.34%)
                                            0.0000 -0.4966 -0.5970 -0.4164 -0.4729
                ( 51.63%)  -0.7185* H  12 s(100.00%)
                                           -1.0000
    47. (0.00738) BD*( 1) C   1 - H  13  
                ( 47.53%)   0.6894* C   1 s( 25.07%)p 2.99( 74.93%)
                                            0.0000 -0.5007  0.2812 -0.5222  0.6305
                ( 52.47%)  -0.7244* H  13 s(100.00%)
                                           -1.0000
    48. (0.00485) BD*( 1) C   1 - H  14  
                ( 48.29%)   0.6949* C   1 s( 24.43%)p 3.09( 75.57%)
                                            0.0000 -0.4943 -0.3622  0.7064  0.3542
                ( 51.71%)  -0.7191* H  14 s(100.00%)
                                           -1.0000
    49. (0.01616) BD*( 1) C   2 - C   6  
                ( 50.30%)   0.7092* C   2 s( 25.24%)p 2.96( 74.76%)
                                            0.0000  0.5024 -0.6203 -0.3881 -0.4607
                ( 49.70%)  -0.7050* C   6 s( 25.45%)p 2.93( 74.55%)
                                            0.0001  0.5045  0.6146  0.4311  0.4265
    50. (0.01676) BD*( 1) C   2 - C   7  
                ( 50.83%)   0.7129* C   2 s( 25.20%)p 2.97( 74.80%)
                                            0.0000  0.5020 -0.3339  0.6708  0.4319
                ( 49.17%)  -0.7012* C   7 s( 25.49%)p 2.92( 74.51%)
                                            0.0001  0.5049  0.3191 -0.6332 -0.4922
    51. (0.01021) BD*( 1) C   2 - H  15  
                ( 48.98%)   0.6999* C   2 s( 24.31%)p 3.11( 75.69%)
                                            0.0000 -0.4931 -0.3334  0.5686 -0.5678
                ( 51.02%)  -0.7143* H  15 s(100.00%)
                                           -1.0000
    52. (0.02681) BD*( 1) C   3 - C   5  
                ( 49.25%)   0.7018* C   3 s( 26.90%)p 2.72( 73.10%)
                                            0.0000 -0.5187  0.5641  0.4030  0.5003
                ( 50.75%)  -0.7124* C   5 s( 25.19%)p 2.97( 74.81%)
                                           -0.0001 -0.5019 -0.5855 -0.3384 -0.5393
    53. (0.02751) BD*( 1) C   3 - C   7  
                ( 50.68%)   0.7119* C   3 s( 26.08%)p 2.83( 73.92%)
                                            0.0000  0.5107  0.4900 -0.5612  0.4291
                ( 49.32%)  -0.7022* C   7 s( 25.51%)p 2.92( 74.49%)
                                            0.0000  0.5051 -0.5004  0.5192 -0.4743
    54. (0.02210) BD*( 1) C   3 - O   8  
                ( 59.06%)   0.7685* C   3 s( 21.50%)p 3.65( 78.50%)
                                            0.0000  0.4637  0.5292  0.4922 -0.5125
                ( 40.94%)  -0.6399* O   8 s( 16.24%)p 5.16( 83.76%)
                                            0.0000  0.4030 -0.4962 -0.5033  0.5814
    55. (0.02199) BD*( 1) C   3 - H  16  
                ( 49.50%)   0.7035* C   3 s( 25.51%)p 2.92( 74.49%)
                                            0.0000 -0.5051  0.4020 -0.5295 -0.5504
                ( 50.50%)  -0.7107* H  16 s(100.00%)
                                           -1.0000
    56. (0.01737) BD*( 1) C   4 - C   5  
                ( 49.81%)   0.7058* C   4 s( 25.60%)p 2.91( 74.40%)
                                           -0.0001 -0.5060  0.3207 -0.6579 -0.4564
                ( 50.19%)  -0.7084* C   5 s( 25.68%)p 2.89( 74.32%)
                                            0.0000 -0.5068 -0.3156  0.7136  0.3666
    57. (0.01293) BD*( 1) C   4 - C   6  
                ( 50.08%)   0.7077* C   4 s( 25.42%)p 2.93( 74.58%)
                                            0.0000  0.5041  0.4762 -0.5093  0.5097
                ( 49.92%)  -0.7066* C   6 s( 25.56%)p 2.91( 74.44%)
                                            0.0000  0.5056 -0.4778  0.5485 -0.4640
    58. (0.00845) BD*( 1) C   4 - H  17  
                ( 48.32%)   0.6951* C   4 s( 24.08%)p 3.15( 75.92%)
                                            0.0000 -0.4907 -0.5005 -0.3117  0.6415
                ( 51.68%)  -0.7189* H  17 s(100.00%)
                                           -1.0000
    59. (0.00943) BD*( 1) C   4 - H  18  
                ( 48.51%)   0.6965* C   4 s( 24.90%)p 3.02( 75.10%)
                                            0.0000 -0.4990  0.6480  0.4591  0.3469
                ( 51.49%)  -0.7175* H  18 s(100.00%)
                                           -1.0000
    60. (0.02217) BD*( 1) C   5 - C   9  
                ( 49.98%)   0.7070* C   5 s( 25.58%)p 2.91( 74.42%)
                                           -0.0001 -0.5058  0.7247  0.1827 -0.4308
                ( 50.02%)  -0.7072* C   9 s( 25.60%)p 2.91( 74.40%)
                                           -0.0001 -0.5060 -0.7674 -0.0774  0.3861
    61. (0.01028) BD*( 1) C   5 - H  19  
                ( 48.46%)   0.6961* C   5 s( 23.55%)p 3.25( 76.45%)
                                            0.0000 -0.4853  0.1798 -0.5856  0.6239
                ( 51.54%)  -0.7179* H  19 s(100.00%)
                                           -1.0000
    62. (0.00870) BD*( 1) C   6 - H  20  
                ( 48.55%)   0.6968* C   6 s( 24.66%)p 3.06( 75.34%)
                                            0.0000 -0.4965 -0.3675  0.5835  0.5271
                ( 51.45%)  -0.7173* H  20 s(100.00%)
                                           -1.0000
    63. (0.01044) BD*( 1) C   6 - H  21  
                ( 48.59%)   0.6971* C   6 s( 24.33%)p 3.11( 75.67%)
                                            0.0000 -0.4933  0.5089  0.4157 -0.5700
                ( 51.41%)  -0.7170* H  21 s(100.00%)
                                           -1.0000
    64. (0.00978) BD*( 1) C   7 - H  22  
                ( 48.73%)   0.6981* C   7 s( 24.69%)p 3.05( 75.31%)
                                            0.0000 -0.4969 -0.6522 -0.4584 -0.3429
                ( 51.27%)  -0.7160* H  22 s(100.00%)
                                           -1.0000
    65. (0.00941) BD*( 1) C   7 - H  23  
                ( 48.50%)   0.6964* C   7 s( 24.30%)p 3.11( 75.70%)
                                            0.0000 -0.4930  0.4716  0.3454 -0.6444
                ( 51.50%)  -0.7177* H  23 s(100.00%)
                                           -1.0000
    66. (0.00789) BD*( 1) O   8 - H  24  
                ( 40.66%)   0.6376* O   8 s( 16.80%)p 4.95( 83.20%)
                                            0.0000 -0.4098 -0.5686 -0.4273 -0.5711
                ( 59.34%)  -0.7703* H  24 s(100.00%)
                                           -1.0000
    67. (0.01103) BD*( 1) C   9 - C  10  
                ( 51.01%)   0.7142* C   9 s( 25.58%)p 2.91( 74.42%)
                                            0.0000  0.5058  0.0036 -0.6773  0.5342
                ( 48.99%)  -0.6999* C  10 s( 25.96%)p 2.85( 74.04%)
                                            0.0001  0.5095  0.0524  0.6552 -0.5553
    68. (0.01005) BD*( 1) C   9 - C  11  
                ( 50.97%)   0.7139* C   9 s( 24.62%)p 3.06( 75.38%)
                                            0.0000  0.4962 -0.6184 -0.1061 -0.6001
                ( 49.03%)  -0.7002* C  11 s( 25.73%)p 2.89( 74.27%)
                                            0.0001  0.5072  0.6444  0.0808  0.5665
    69. (0.01110) BD*( 1) C   9 - H  25  
                ( 49.02%)   0.7001* C   9 s( 24.19%)p 3.13( 75.81%)
                                            0.0000 -0.4919  0.1693 -0.7239 -0.4532
                ( 50.98%)  -0.7140* H  25 s(100.00%)
                                           -1.0000
    70. (0.00662) BD*( 1) C  10 - H  26  
                ( 48.04%)   0.6931* C  10 s( 24.87%)p 3.02( 75.13%)
                                            0.0000 -0.4987 -0.0847  0.7523  0.4221
                ( 51.96%)  -0.7208* H  26 s(100.00%)
                                           -1.0000
    71. (0.00704) BD*( 1) C  10 - H  27  
                ( 48.17%)   0.6940* C  10 s( 24.96%)p 3.01( 75.04%)
                                            0.0000 -0.4996 -0.6248 -0.0670 -0.5963
                ( 51.83%)  -0.7200* H  27 s(100.00%)
                                           -1.0000
    72. (0.00500) BD*( 1) C  10 - H  28  
                ( 48.12%)   0.6937* C  10 s( 24.21%)p 3.13( 75.79%)
                                            0.0000 -0.4921  0.7744 -0.0161 -0.3974
[...]
   17      -0.3604       -0.7267       0.3664        -1.3975       1.0371
   20      -0.9771       -1.3742       0.3971        -1.9254       0.9483
   21      -0.8180       -1.2448       0.4268        -1.1426       0.3246
   22      15.2096        6.7606       8.4490         0.8037      14.4059
   39     271.1675       -0.0057     271.1731        -0.0041     271.1716
   43      32.4690       -3.5699      36.0388        -5.0128      37.4818
   44       1.1890      -37.9125      39.1015       -38.7966      39.9856
 Sum      345.6790      -28.5484     374.2274       -31.6686     377.3476

 Contributions to Isotropic shielding for atom    9 (   211.6872 ppm):
                         Standard Origin              Atomic Origin
 NLMO      Total    Paramagnetic  Diamagnetic   Paramagnetic  Diamagnetic
   11      -0.3299       -0.6895       0.3596        -1.2435       0.9136
   16       4.7041       -9.7602      14.4643        -3.1087       7.8128
   17       0.4807        0.1669       0.3138        -0.5268       1.0075
   23      -0.1968       -6.8114       6.6146        -7.7171       7.5203
   24      -2.5826       -4.5964       2.0138       -10.0603       7.4778
   25       4.9191       -2.2353       7.1543        -5.9249      10.8439
   26       0.7958       -0.2564       1.0522        -0.2384       1.0342
   27       0.5868       -0.5541       1.1408        -0.4282       1.0150
   28       0.5970       -0.1247       0.7217        -0.4257       1.0227
   29       1.1366       -0.2813       1.4180         0.1138       1.0228
   30       0.7342       -0.5914       1.3256        -0.2841       1.0184
   31       0.6273       -0.4185       1.0458        -0.3955       1.0228
   40     199.9260       -0.0018     199.9278         0.0022     199.9238
 Sum      211.3983      -26.1542     237.5525       -30.2372     241.6355

 Contributions to Isotropic shielding for atom   10 (   223.1657 ppm):
                         Standard Origin              Atomic Origin
 NLMO      Total    Paramagnetic  Diamagnetic   Paramagnetic  Diamagnetic
   23       3.5435       -8.9753      12.5188        -4.4244       7.9678
   24      -0.3650       -0.0225      -0.3425        -1.0762       0.7112
   25       0.3049       -0.1377       0.4426        -0.6987       1.0036
   26       6.6246       -4.0602      10.6848        -4.5336      11.1582
   27       6.7691       -5.9954      12.7645        -4.3440      11.1131
   28       5.7091        2.8774       2.8317        -5.3617      11.0708
   41     200.0795       -0.0019     200.0815         0.0012     200.0783
 Sum      222.6657      -16.3157     238.9814       -20.4374     243.1031

 Contributions to Isotropic shielding for atom   11 (   220.1953 ppm):
                         Standard Origin              Atomic Origin
 NLMO      Total    Paramagnetic  Diamagnetic   Paramagnetic  Diamagnetic
   17      -0.2593       -0.1199      -0.1394        -1.2048       0.9455
   23      -0.5252        0.0879      -0.6131        -1.2579       0.7327
   24       4.7927      -11.8374      16.6301        -3.2026       7.9954
   25       0.2807        0.1754       0.1054        -0.7494       1.0302
   29       6.1479       -4.3933      10.5412        -4.9965      11.1444
   30       4.8036       -3.5889       8.3925        -6.3095      11.1131
   31       4.6369        2.0092       2.6277        -6.4638      11.1007
   42     200.0747       -0.0042     200.0788         0.0024     200.0722
 Sum      219.9519      -17.6712     237.6231       -24.1822     244.1341

 Contributions to Isotropic shielding for atom   12 (    32.7180 ppm):
                         Standard Origin              Atomic Origin
 NLMO      Total    Paramagnetic  Diamagnetic   Paramagnetic  Diamagnetic
    1       1.3747        0.0901       1.2846         0.3724       1.0023
    2      26.4536        0.1241      26.3295         0.4203      26.0333
    3       2.0873        0.9090       1.1783         0.2090       1.8783
    4       1.9265        2.3574      -0.4310         0.0981       1.8283
    6      -0.1436        0.3550      -0.4986        -1.0103       0.8667
 Sum       31.6984        3.8356      27.8628         0.0895      31.6090

 Contributions to Isotropic shielding for atom   13 (    31.9729 ppm):
                         Standard Origin              Atomic Origin
 NLMO      Total    Paramagnetic  Diamagnetic   Paramagnetic  Diamagnetic
    1       1.5876       -1.2626       2.8503         0.6997       0.8879
    2       1.9309        1.1576       0.7732         0.1088       1.8220
    3      26.0118        0.3545      25.6573         0.4002      25.6116
    4       1.9436        1.2867       0.6569         0.0873       1.8564
   43      -0.2326        0.1840      -0.4166         0.7710      -1.0036
 Sum       31.2414        1.7202      29.5212         2.0670      29.1744

 Contributions to Isotropic shielding for atom   14 (    32.5851 ppm):
                         Standard Origin              Atomic Origin
 NLMO      Total    Paramagnetic  Diamagnetic   Paramagnetic  Diamagnetic
    1       1.3486        0.1912       1.1574         0.3219       1.0268
    2       1.9184        2.3114      -0.3931         0.0810       1.8374
    3       2.0625        1.0073       1.0551         0.1687       1.8937
    4      26.4245        0.0953      26.3293         0.4290      25.9955
 Sum       31.7540        3.6053      28.1488         1.0006      30.7534

 Contributions to Isotropic shielding for atom   15 (    32.4770 ppm):
                         Standard Origin              Atomic Origin
 NLMO      Total    Paramagnetic  Diamagnetic   Paramagnetic  Diamagnetic
    1       0.7893        2.2241      -1.4348        -0.2700       1.0593
    4       0.2186       -0.5235       0.7421        -0.7868       1.0055
    5       1.3323        0.9766       0.3557         0.3455       0.9868
    6       1.3196        0.9623       0.3573         0.3362       0.9834
    7      26.5568       -0.2501      26.8069         0.4549      26.1019
   19       0.1201       -0.0263       0.1464        -0.9227       1.0428
   21       0.0911       -0.0343       0.1254        -0.9689       1.0600
 Sum       30.4279        3.3289      27.0990        -1.8117      32.2396

 Contributions to Isotropic shielding for atom   16 (    32.0327 ppm):
                         Standard Origin              Atomic Origin
 NLMO      Total    Paramagnetic  Diamagnetic   Paramagnetic  Diamagnetic
    8       1.0727        0.2219       0.8507        -0.0604       1.1331
    9       0.7726        0.6296       0.1431        -0.2625       1.0351
   10       0.5268        1.4172      -0.8904        -1.0852       1.6120
   11      26.8249        0.3092      26.5157         0.7945      26.0304
   16      -0.0785       -0.0806       0.0021        -1.1791       1.1006
   21       0.1796       -0.3197       0.4993        -0.8501       1.0297
   22       0.3512       -0.6900       1.0413        -0.6147       0.9659
   25      -0.1889       -1.0876       0.8987        -0.9241       0.7353
 Sum       29.4605        0.4000      29.0605        -4.1816      33.6420

 Contributions to Isotropic shielding for atom   17 (    32.2254 ppm):
                         Standard Origin              Atomic Origin
 NLMO      Total    Paramagnetic  Diamagnetic   Paramagnetic  Diamagnetic
    3      -0.3291       -1.0762       0.7472        -0.8274       0.4983
   10       0.1493       -0.5077       0.6570        -1.1654       1.3148
   12       1.3799        0.4205       0.9594         0.3117       1.0683
   13       1.1005        0.8746       0.2259         0.0555       1.0451
   14      26.2815        0.0224      26.2590         0.3958      25.8857
   15       2.0492        1.5497       0.4995         0.2201       1.8291
   17      -0.0529       -0.3580       0.3051        -1.1327       1.0798
 Sum       30.5785        0.9253      29.6533        -2.1425      32.7210

 Contributions to Isotropic shielding for atom   18 (    32.5540 ppm):
                         Standard Origin              Atomic Origin
 NLMO      Total    Paramagnetic  Diamagnetic   Paramagnetic  Diamagnetic
   12       1.2704        0.5670       0.7034         0.3244       0.9459
   13       1.1312        1.0955       0.0357         0.0827       1.0485
   14       2.1135        1.5388       0.5747         0.3342       1.7792
   15      26.3855        0.0304      26.3551         0.4058      25.9798
   16      -0.1247        0.0022      -0.1270        -1.0587       0.9339
   29      -0.3279       -1.6203       1.2925        -0.8788       0.5509
 Sum       30.4481        1.6136      28.8344        -0.7903      31.2383

 Contributions to Isotropic shielding for atom   19 (    31.9499 ppm):
                         Standard Origin              Atomic Origin
 NLMO      Total    Paramagnetic  Diamagnetic   Paramagnetic  Diamagnetic
    8       1.2263        1.0856       0.1407         0.1728       1.0535
   10       0.1334       -0.6382       0.7716        -1.7335       1.8669
   12       1.2064        0.9426       0.2639        -0.0485       1.2550
   14       0.0177       -0.4647       0.4823        -1.1226       1.1403
   16       1.0188        1.4117      -0.3930        -0.1768       1.1955
   17      26.1786       -0.1370      26.3156         0.4405      25.7380
   24      -0.0789       -0.5840       0.5051        -1.1510       1.0721
   30      -0.1489       -1.7139       1.5649        -1.0569       0.9080
   43      -0.4664        0.0858      -0.5522         0.5711      -1.0375
 Sum       29.0869       -0.0121      29.0991        -4.1049      33.1918

 Contributions to Isotropic shielding for atom   20 (    32.5665 ppm):
                         Standard Origin              Atomic Origin
 NLMO      Total    Paramagnetic  Diamagnetic   Paramagnetic  Diamagnetic
    1      -0.0801       -0.0971       0.0169        -1.0894       1.0093
    4      -0.0849       -1.1484       1.0636        -0.9887       0.9038
    5       1.0727        1.3221      -0.2493         0.1622       0.9105
   13       1.2190        0.8438       0.3752         0.1808       1.0383
   14       0.1791        0.0654       0.1136        -0.8644       1.0434
   18      26.4565       -0.0277      26.4842         0.4625      25.9940
   19       2.1072        1.4904       0.6168         0.3506       1.7566
 Sum       30.8695        2.4485      28.4210        -1.7864      32.6559

 Contributions to Isotropic shielding for atom   21 (    32.6906 ppm):
                         Standard Origin              Atomic Origin
 NLMO      Total    Paramagnetic  Diamagnetic   Paramagnetic  Diamagnetic
    5       1.2737        0.5787       0.6950         0.2798       0.9939
   13       1.3744        0.1008       1.2736         0.4030       0.9714
   18       1.9957        1.7470       0.2487         0.1851       1.8106
   19      26.5021        0.1335      26.3686         0.4051      26.0969
   26      -0.3567       -1.2356       0.8790        -1.0184       0.6617
 Sum       30.7891        1.3242      29.4649         0.2546      30.5345

 Contributions to Isotropic shielding for atom   22 (    32.9579 ppm):
                         Standard Origin              Atomic Origin
 NLMO      Total    Paramagnetic  Diamagnetic   Paramagnetic  Diamagnetic
    1      -0.0914       -0.0823      -0.0090        -1.0716       0.9802
    2      -0.1111       -1.2740       1.1629        -1.0009       0.8898
    6       1.0728        1.3951      -0.3223         0.0385       1.0343
    9       1.2517        0.8726       0.3791         0.3409       0.9108
   10      -0.2159        0.2586      -0.4745        -1.4803       1.2643
   20      26.5256        0.0301      26.4955         0.4705      26.0551
   21       2.0935        1.4559       0.6376         0.3554       1.7381
   22      -0.0118       -1.0955       1.0837        -0.7140       0.7022
 Sum       30.5134        1.5605      28.9529        -3.0615      33.5749

 Contributions to Isotropic shielding for atom   23 (    32.5336 ppm):
                         Standard Origin              Atomic Origin
 NLMO      Total    Paramagnetic  Diamagnetic   Paramagnetic  Diamagnetic
    6       1.2919        0.6051       0.6868         0.2228       1.0691
    9       1.4570        0.2450       1.2120         0.5363       0.9207
   20       1.8921        1.6341       0.2581         0.0848       1.8073
   21      26.4528        0.1819      26.2709         0.4277      26.0251
   27      -0.5038       -1.0133       0.5095        -0.3982      -0.1057
 Sum       30.5901        1.6528      28.9373         0.8735      29.7166

 Contributions to Isotropic shielding for atom   24 (    35.1009 ppm):
                         Standard Origin              Atomic Origin
 NLMO      Total    Paramagnetic  Diamagnetic   Paramagnetic  Diamagnetic
    9      -0.2238        0.2974      -0.5211        -1.2519       1.0282
   10       1.3779        2.3729      -0.9950         0.6709       0.7070
   11       0.1596        0.3123      -0.1527        -0.9047       1.0643
   20      -0.1401       -0.6483       0.5082        -1.0025       0.8624
   22      23.2495       -0.4539      23.7034         0.0118      23.2378
   43       4.0931        0.6350       3.4581         2.1463       1.9468
   44       5.5210        2.3519       3.1691         2.3578       3.1632
 Sum       34.0372        4.8673      29.1699         2.0275      32.0097

 Contributions to Isotropic shielding for atom   25 (    32.5642 ppm):
                         Standard Origin              Atomic Origin
 NLMO      Total    Paramagnetic  Diamagnetic   Paramagnetic  Diamagnetic
    8      -0.1099        0.2194      -0.3293        -1.0903       0.9804
   16       1.6611        0.0727       1.5884         0.6109       1.0502
   23       1.0319        1.3198      -0.2878        -0.0080       1.0400
   24       0.8123        2.1603      -1.3480        -0.2174       1.0296
   25      26.5430       -0.0862      26.6292         0.4531      26.0900
 Sum       29.9384        3.6859      26.2524        -0.2517      30.1901

 Contributions to Isotropic shielding for atom   26 (    32.7540 ppm):
                         Standard Origin              Atomic Origin
 NLMO      Total    Paramagnetic  Diamagnetic   Paramagnetic  Diamagnetic
   12      -0.1039       -0.0330      -0.0710        -1.0033       0.8994
   23       1.4083       -0.2883       1.6966         0.4759       0.9324
   24      -0.1259        0.0554      -0.1813        -1.0503       0.9244
   26      26.2781        0.2361      26.0419         0.3927      25.8854
   27       2.1547        0.3170       1.8377         0.3748       1.7799
   28       1.9830        2.0436      -0.0605         0.1256       1.8575
 Sum       31.5944        2.3309      29.2635        -0.6845      32.2789

 Contributions to Isotropic shielding for atom   27 (    32.8001 ppm):
                         Standard Origin              Atomic Origin
 NLMO      Total    Paramagnetic  Diamagnetic   Paramagnetic  Diamagnetic
   23       1.5000       -0.6793       2.1793         0.4929       1.0071
   26       2.1524        0.4261       1.7263         0.3484       1.8041
   27      26.3728        0.3131      26.0597         0.3776      25.9952
   28       1.9770        1.7082       0.2688         0.0982       1.8787
 Sum       32.0023        1.7681      30.2342         1.3171      30.6851

 Contributions to Isotropic shielding for atom   28 (    32.5713 ppm):
                         Standard Origin              Atomic Origin
 NLMO      Total    Paramagnetic  Diamagnetic   Paramagnetic  Diamagnetic
   23       1.1475        0.9305       0.2170         0.1275       1.0200
   24      -0.1238        0.4746      -0.5984        -1.1057       0.9819
   26       1.9964        1.6907       0.3056         0.1188       1.8776
   27       2.0404        1.3225       0.7179         0.1631       1.8773
   28      26.3271       -0.0256      26.3527         0.4145      25.9126
   31      -0.1037       -1.1391       1.0354        -0.9870       0.8833
 Sum       31.2839        3.2538      28.0302        -1.2687      32.5526

 Contributions to Isotropic shielding for atom   29 (    32.4358 ppm):
                         Standard Origin              Atomic Origin
 NLMO      Total    Paramagnetic  Diamagnetic   Paramagnetic  Diamagnetic
   12      -0.0763        0.1983      -0.2746        -1.0713       0.9950
   23      -0.1403        0.3563      -0.4966        -1.0261       0.8858
   24       1.5809       -1.1709       2.7519         0.6651       0.9158
   29      26.3378        0.2849      26.0529         0.4116      25.9262
   30       1.9594        0.9793       0.9801         0.1427       1.8167
   31       1.8638        1.9884      -0.1246         0.0237       1.8401
 Sum       31.5252        2.6362      28.8890        -0.8544      32.3795

 Contributions to Isotropic shielding for atom   30 (    32.4264 ppm):
                         Standard Origin              Atomic Origin
 NLMO      Total    Paramagnetic  Diamagnetic   Paramagnetic  Diamagnetic
   24       1.5730       -0.7709       2.3439         0.5785       0.9945
   29       2.0087        0.9191       1.0896         0.1699       1.8388
   30      26.3636        0.2537      26.1099         0.4499      25.9137
   31       1.8743        2.2836      -0.4092         0.0222       1.8522
 Sum       31.8196        2.6855      29.1341         1.2205      30.5991

 Contributions to Isotropic shielding for atom   31 (    32.4186 ppm):
                         Standard Origin              Atomic Origin
 NLMO      Total    Paramagnetic  Diamagnetic   Paramagnetic  Diamagnetic
   23      -0.1740        0.7394      -0.9133        -1.1545       0.9805
   24       1.3164        0.1376       1.1788         0.3029       1.0135
   29       1.9469        1.6694       0.2775         0.0894       1.8575
   30       1.8764        2.0051      -0.1287         0.0249       1.8515
   31      26.3806        0.0310      26.3496         0.4546      25.9260
 Sum       31.3463        4.5825      26.7638        -0.2827      31.6290
 
 1\1\GINC-COMPUTE-10-4\SP\RHF\STO-3G\C10H20O1\YTSAI.IQUIR\03-Aug-2021\0
 \\# rhf/STO-3G nmr pop=nbo\\comment\\0,1\C,0,2.027730695,0.319065072,-
 2.364438835\C,0,0.62028856,-0.162541696,-2.002756516\C,0,0.971565221,-
 1.060565006,0.389499976\C,0,0.140118732,1.333886309,0.01573723\C,0,0.2
 24255555,0.148257524,0.998200818\C,0,-0.232900978,0.965468448,-1.41938
 0403\C,0,0.627741217,-1.379266885,-1.067733591\O,0,2.375608143,-0.7915
 98609,0.480900946\C,0,-1.116586586,-0.243799632,1.693464924\C,0,-2.299
 324369,-0.533958819,0.773204098\C,0,-1.538436308,0.823134306,2.7162351
 97\H,0,2.626772909,-0.503503593,-2.769084008\H,0,2.563462492,0.7398205
 32,-1.509867076\H,0,1.976233012,1.098409949,-3.132770685\H,0,0.1539739
 41,-0.478817081,-2.945713013\H,0,0.799534166,-1.952345938,1.002898803\
 H,0,1.12142071,1.826006342,-0.004943299\H,0,-0.55586946,2.095390067,0.
 383001805\H,0,0.865316792,0.507951015,1.818432189\H,0,-0.152672098,1.8
 58991799,-2.050985235\H,0,-1.284729022,0.667148571,-1.464545085\H,0,1.
 33167775,-2.124673763,-1.459316662\H,0,-0.359975437,-1.849434093,-1.10
 7485789\H,0,2.847376748,-1.576347748,0.153600908\H,0,-0.926749221,-1.1
 58424746,2.271665754\H,0,-2.636950154,0.365221348,0.24996773\H,0,-2.06
 7885005,-1.306674127,0.039337234\H,0,-3.151410557,-0.899511531,1.35828
 7664\H,0,-1.812236487,1.766277427,2.233687897\H,0,-0.731618285,1.02473
 8836,3.428643196\H,0,-2.405732676,0.481695721,3.292253828\\Version=EM6
 4L-G09RevC.01\State=1-A\HF=-459.6107601\RMSD=7.634e-09\Dipole=-0.25870
 52,-0.4061641,-0.1545596\Quadrupole=-1.2776549,1.8909263,-0.6132713,-1
 .8250421,-1.0980214,0.0472496\PG=C01 [X(C10H20O1)]\\@


 COMMON SENSE IS NOT SO COMMON.   -- VOLTAIRE
 Job cpu time:  0 days  0 hours  0 minutes 26.6 seconds.
 File lengths (MBytes):  RWF=      5 Int=      0 D2E=      0 Chk=      1 Scr=      1
 Normal termination of Gaussian 09 at Tue Aug  3 16:32:56 2021.
