 Entering Gaussian System, Link 0=g09
 Input=/home/ytsai.iquir/menthol/01_menthol_M0067_MMFF_NMR_rhf_STO-3G_nbo.gjc
 Output=/home/ytsai.iquir/menthol/01_menthol_M0067_MMFF_NMR_rhf_STO-3G_nbo.log
 Initial command:
 /share/apps/Gaussian09/EM64T.SSE4.2-enabled/g09/l1.exe /tmp/Gau-7720.inp -scrdir=/tmp/
 Entering Link 1 = /share/apps/Gaussian09/EM64T.SSE4.2-enabled/g09/l1.exe PID=      7721.
  
 Copyright (c) 1988,1990,1992,1993,1995,1998,2003,2009,2011,
            Gaussian, Inc.  All Rights Reserved.
  
 This is part of the Gaussian(R) 09 program.  It is based on
 the Gaussian(R) 03 system (copyright 2003, Gaussian, Inc.),
 the Gaussian(R) 98 system (copyright 1998, Gaussian, Inc.),
 the Gaussian(R) 94 system (copyright 1995, Gaussian, Inc.),
 the Gaussian 92(TM) system (copyright 1992, Gaussian, Inc.),
 the Gaussian 90(TM) system (copyright 1990, Gaussian, Inc.),
 the Gaussian 88(TM) system (copyright 1988, Gaussian, Inc.),
 the Gaussian 86(TM) system (copyright 1986, Carnegie Mellon
 University), and the Gaussian 82(TM) system (copyright 1983,
 Carnegie Mellon University). Gaussian is a federally registered
 trademark of Gaussian, Inc.
  
 This software contains proprietary and confidential information,
 including trade secrets, belonging to Gaussian, Inc.
  
 This software is provided under written license and may be
 used, copied, transmitted, or stored only in accord with that
 written license.
  
 The following legend is applicable only to US Government
 contracts under FAR:
  
                    RESTRICTED RIGHTS LEGEND
  
 Use, reproduction and disclosure by the US Government is
 subject to restrictions as set forth in subparagraphs (a)
 and (c) of the Commercial Computer Software - Restricted
 Rights clause in FAR 52.227-19.
  
 Gaussian, Inc.
 340 Quinnipiac St., Bldg. 40, Wallingford CT 06492
  
  
 ---------------------------------------------------------------
 Warning -- This program may not be used in any manner that
 competes with the business of Gaussian, Inc. or will provide
 assistance to any competitor of Gaussian, Inc.  The licensee
 of this program is prohibited from giving any competitor of
 Gaussian, Inc. access to this program.  By using this program,
 the user acknowledges that Gaussian, Inc. is engaged in the
 business of creating and licensing software in the field of
 computational chemistry and represents and warrants to the
 licensee that it is not a competitor of Gaussian, Inc. and that
 it will not use this program in any manner prohibited above.
 ---------------------------------------------------------------
  

 Cite this work as:
 Gaussian 09, Revision C.01,
 M. J. Frisch, G. W. Trucks, H. B. Schlegel, G. E. Scuseria, 
 M. A. Robb, J. R. Cheeseman, G. Scalmani, V. Barone, B. Mennucci, 
 G. A. Petersson, H. Nakatsuji, M. Caricato, X. Li, H. P. Hratchian, 
 A. F. Izmaylov, J. Bloino, G. Zheng, J. L. Sonnenberg, M. Hada, 
 M. Ehara, K. Toyota, R. Fukuda, J. Hasegawa, M. Ishida, T. Nakajima, 
 Y. Honda, O. Kitao, H. Nakai, T. Vreven, J. A. Montgomery, Jr., 
 J. E. Peralta, F. Ogliaro, M. Bearpark, J. J. Heyd, E. Brothers, 
 K. N. Kudin, V. N. Staroverov, T. Keith, R. Kobayashi, J. Normand, 
 K. Raghavachari, A. Rendell, J. C. Burant, S. S. Iyengar, J. Tomasi, 
 M. Cossi, N. Rega, J. M. Millam, M. Klene, J. E. Knox, J. B. Cross, 
 V. Bakken, C. Adamo, J. Jaramillo, R. Gomperts, R. E. Stratmann, 
 O. Yazyev, A. J. Austin, R. Cammi, C. Pomelli, J. W. Ochterski, 
 R. L. Martin, K. Morokuma, V. G. Zakrzewski, G. A. Voth, 
 P. Salvador, J. J. Dannenberg, S. Dapprich, A. D. Daniels, 
 O. Farkas, J. B. Foresman, J. V. Ortiz, J. Cioslowski, 
 and D. J. Fox, Gaussian, Inc., Wallingford CT, 2010.
 
 ******************************************
 Gaussian 09:  EM64L-G09RevC.01 23-Sep-2011
                 3-Aug-2021 
 ******************************************
 %nprocshared=4
 Will use up to    4 processors via shared memory.
 ------------------------
 # rhf/STO-3G nmr pop=nbo
 ------------------------
 1/38=1/1;
 2/12=2,17=6,18=5,40=1/2;
 3/6=3,11=1,16=1,25=1,30=1,116=1/1,2,8,3;
 4//1;
 5/5=2,38=5/2;
 8/6=1,10=90,11=11/1;
 10/13=100,45=16/2;
 6/7=2,8=2,9=2,10=2,28=1,64=1/1,7;
 99/9=1/99;
 -------
 comment
 -------
 Charge =  0 Multiplicity = 1
 Symbolic Z-Matrix:
 6                     0.74981  -0.66108  -2.89237 
 6                    -0.59914  -0.73909  -2.17151 
 6                     0.26306  -1.00495   0.24134 
 6                    -1.14206   1.01355  -0.36258 
 6                     0.14581   0.53494   0.32232 
 6                    -1.14707   0.66409  -1.85349 
 6                    -0.53104  -1.62375  -0.9189 
 8                     1.64432  -1.34509   0.10347 
 6                     0.28451   1.11229   1.76274 
 6                     1.6228    0.73883   2.40775 
 6                    -0.86458   0.74086   2.70549 
 1                     0.64177  -0.13849  -3.84916 
 1                     1.5015   -0.12459  -2.30644 
 1                     1.13547  -1.66367  -3.10517 
 1                    -1.29437  -1.21671  -2.8751 
 1                    -0.07816  -1.47503   1.16879 
 1                    -1.25863   2.09825  -0.25219 
 1                    -2.01785   0.5539    0.11162 
 1                     0.98558   0.96688  -0.24234 
 1                    -0.58466   1.42749  -2.40557 
 1                    -2.18041   0.73786  -2.21577 
 1                    -0.12267  -2.607    -1.18265 
 1                    -1.5604   -1.79627  -0.57692 
 1                     1.71055  -2.31513   0.10865 
 1                     0.2759    2.20727   1.66922 
 1                     1.67987  -0.33011   2.63633 
 1                     2.45953   0.99723   1.7505 
 1                     1.76085   1.28426   3.34782 
 1                    -0.93488  -0.33902   2.86385 
 1                    -1.82663   1.0949    2.32392 
 1                    -0.71877   1.2074    3.68634 
 
                          Input orientation:                          
 ---------------------------------------------------------------------
 Center     Atomic      Atomic             Coordinates (Angstroms)
 Number     Number       Type             X           Y           Z
 ---------------------------------------------------------------------
      1          6           0        0.749809   -0.661082   -2.892370
      2          6           0       -0.599138   -0.739095   -2.171507
      3          6           0        0.263057   -1.004953    0.241341
      4          6           0       -1.142058    1.013545   -0.362576
      5          6           0        0.145811    0.534940    0.322316
      6          6           0       -1.147073    0.664093   -1.853492
      7          6           0       -0.531039   -1.623748   -0.918896
      8          8           0        1.644316   -1.345092    0.103473
      9          6           0        0.284513    1.112289    1.762741
     10          6           0        1.622802    0.738829    2.407747
     11          6           0       -0.864582    0.740860    2.705492
     12          1           0        0.641768   -0.138495   -3.849159
     13          1           0        1.501503   -0.124588   -2.306442
     14          1           0        1.135466   -1.663666   -3.105172
     15          1           0       -1.294374   -1.216710   -2.875096
     16          1           0       -0.078155   -1.475035    1.168794
     17          1           0       -1.258632    2.098247   -0.252191
     18          1           0       -2.017847    0.553896    0.111621
     19          1           0        0.985580    0.966879   -0.242339
     20          1           0       -0.584665    1.427492   -2.405572
     21          1           0       -2.180410    0.737856   -2.215772
     22          1           0       -0.122674   -2.606996   -1.182649
     23          1           0       -1.560399   -1.796266   -0.576919
     24          1           0        1.710553   -2.315130    0.108648
     25          1           0        0.275899    2.207267    1.669217
     26          1           0        1.679872   -0.330114    2.636331
     27          1           0        2.459526    0.997231    1.750496
     28          1           0        1.760848    1.284265    3.347820
     29          1           0       -0.934883   -0.339022    2.863853
     30          1           0       -1.826627    1.094902    2.323925
     31          1           0       -0.718767    1.207404    3.686336
 ---------------------------------------------------------------------
                    Distance matrix (angstroms):
                    1          2          3          4          5
     1  C    0.000000
     2  C    1.531466   0.000000
     3  C    3.189877   2.576023   0.000000
     4  C    3.575387   2.576575   2.532469   0.000000
     5  C    3.482742   2.897803   1.546472   1.535170   0.000000
     6  C    2.536438   1.539579   3.026963   1.531330   2.534239
     7  C    2.542026   1.535019   1.536113   2.763720   2.580439
     8  O    3.200483   3.252053   1.429188   3.680252   2.414111
     9  C    5.003140   4.436977   2.607266   2.561606   1.558010
    10  C    5.550956   5.300079   3.095642   3.923596   2.563610
    11  C    5.992309   5.103513   3.223581   3.092635   2.596695
    12  H    1.095543   2.171424   4.198375   4.082339   4.254490
    13  H    1.093701   2.192834   2.966478   3.473094   3.030387
    14  H    1.095076   2.176101   3.520532   4.458296   4.190579
    15  H    2.118420   1.098412   3.490359   3.363034   3.919930
    16  H    4.223872   3.459861   1.094336   3.109664   2.192415
    17  H    4.314891   3.488440   3.491269   1.096519   2.178634
    18  H    4.261462   2.982823   2.765748   1.096881   2.173975
    19  H    3.119056   3.023800   2.155019   2.131544   1.100281
    20  H    2.525853   2.179241   3.693449   2.157747   2.961691
    21  H    3.316775   2.164201   3.878829   2.142082   3.448821
    22  H    2.733305   2.166544   2.177860   3.849673   3.494104
    23  H    3.462227   2.141108   2.149585   2.848858   3.025607
    24  H    3.558794   3.608000   1.956889   4.409027   3.258369
    25  H    5.409260   4.919135   3.515303   2.750228   2.151219
    26  H    5.616146   5.336333   2.863346   4.331529   2.907976
    27  H    5.218174   5.268050   3.333282   4.175733   2.758023
    28  H    6.614118   6.334547   4.139337   4.718812   3.510485
    29  H    6.006332   5.062374   2.959071   3.504598   2.896744
    30  H    6.077108   5.007912   3.621233   2.773543   2.865399
    31  H    6.994808   6.173936   4.210285   4.075591   3.537843
                    6          7          8          9         10
     6  C    0.000000
     7  C    2.546996   0.000000
     8  O    3.957068   2.419722   0.000000
     9  C    3.915029   3.916912   3.262048   0.000000
    10  C    5.082908   4.613822   3.106907   1.531837   0.000000
    11  C    4.568373   4.340370   4.173280   1.532044   2.505141
    12  H    2.797639   3.488251   4.252561   5.760686   6.393825
    13  H    2.800382   2.881665   2.705128   4.423707   4.794141
    14  H    3.492155   2.749297   3.264325   5.668035   6.033386
    15  H    2.145412   2.138944   4.186198   5.424634   6.343696
    16  H    3.853916   2.141417   2.029458   2.679281   3.054415
    17  H    2.152535   3.850602   4.517764   2.722748   4.150416
    18  H    2.152223   2.831024   4.125247   2.887709   4.308216
    19  H    2.689926   3.077208   2.428730   2.129081   2.735144
    20  H    1.097211   3.394576   4.353261   4.269620   5.339964
    21  H    1.097485   3.159032   4.934177   4.695168   5.986765
    22  H    3.492771   1.096861   2.523641   4.761744   5.208855
    23  H    2.802472   1.098314   3.307067   4.163821   5.046554
    24  H    4.570754   2.560974   0.972310   4.064089   3.823640
    25  H    4.100697   4.693203   4.116233   1.098998   2.125061
    26  H    5.398016   4.381923   2.728885   2.188770   1.094598
    27  H    5.109527   4.789432   2.977202   2.178089   1.094924
    28  H    5.991182   5.649261   4.177665   2.172928   1.095579
    29  H    4.827485   4.015321   3.909495   2.192187   2.812747
    30  H    4.254198   4.425550   4.788677   2.184524   3.468772
    31  H    5.582860   5.409143   4.993627   2.171598   2.708745
                   11         12         13         14         15
    11  C    0.000000
    12  H    6.782758   0.000000
    13  H    5.609532   1.766157   0.000000
    14  H    6.598920   1.767315   1.772206   0.000000
    15  H    5.929567   2.420742   3.055001   2.481296   0.000000
    16  H    2.808931   5.242564   4.049234   4.446936   4.230717
    17  H    3.278058   4.642490   4.096254   5.293694   4.227275
    18  H    2.844845   4.820865   4.323564   5.020829   3.546680
    19  H    3.487677   3.788035   2.391234   3.890764   4.110677
    20  H    5.164571   2.457721   2.602091   3.606043   2.777759
    21  H    5.094139   3.376482   3.782660   4.189675   2.245016
    22  H    5.184226   3.713239   3.172257   2.483724   2.483979
    23  H    4.206589   4.278469   3.893714   3.698288   2.385010
    24  H    4.765920   4.641581   3.267236   3.329229   4.374796
    25  H    2.127185   6.007406   4.769226   6.206268   5.902555
    26  H    2.761523   6.570841   4.950259   5.919425   6.325189
    27  H    3.468060   5.995852   4.316831   5.693067   6.355266
    28  H    2.756946   7.421124   5.832907   7.121973   7.369799
    29  H    1.093693   6.898592   5.719608   6.455253   5.816796
    30  H    1.093834   6.761746   5.831287   6.771911   5.714601
    31  H    1.095892   7.774714   6.528185   7.603013   7.018550
                   16         17         18         19         20
    16  H    0.000000
    17  H    4.022569   0.000000
    18  H    2.999430   1.758917   0.000000
    19  H    3.014261   2.513281   3.052281   0.000000
    20  H    4.632203   2.353975   3.025466   2.712455   0.000000
    21  H    4.557592   2.560467   2.340305   3.737698   1.748721
    22  H    2.610096   4.929043   3.906156   3.858107   4.240998
    23  H    2.312520   3.919661   2.491306   3.772125   3.832577
    24  H    2.242576   5.331432   4.704497   3.379402   5.059303
    25  H    3.732978   2.461398   3.228160   2.386683   4.237042
    26  H    2.560306   4.782813   4.563853   3.232796   5.799835
    27  H    3.590306   4.364366   4.788458   2.478876   5.169635
    28  H    3.967848   4.768637   5.028415   3.686599   6.214778
    29  H    2.213082   3.969235   3.089482   3.878400   5.568669
    30  H    3.316030   2.822356   2.285507   3.809280   4.901146
    31  H    3.734150   4.073947   3.859180   4.289189   6.097357
                   21         22         23         24         25
    21  H    0.000000
    22  H    4.060746   0.000000
    23  H    3.080914   1.758193   0.000000
    24  H    5.464727   2.261273   3.382063   0.000000
    25  H    4.825532   5.609735   4.944229   4.994565   0.000000
    26  H    6.291680   4.797704   4.793113   3.214096   3.056918
    27  H    6.109629   5.316159   5.420358   3.772049   2.497803
    28  H    6.840002   6.262165   5.993657   4.842562   2.423781
    29  H    5.339812   4.709306   3.788634   4.300522   3.062146
    30  H    4.567438   5.376203   4.104220   5.389565   2.467107
    31  H    6.098504   6.213854   5.282587   5.577607   2.461272
                   26         27         28         29         30
    26  H    0.000000
    27  H    1.776066   0.000000
    28  H    1.766067   1.766914   0.000000
    29  H    2.624650   3.814073   3.183748   0.000000
    30  H    3.797868   4.325445   3.735532   1.772814   0.000000
    31  H    3.036435   3.727358   2.503795   1.764828   1.759595
                   31
    31  H    0.000000
 Stoichiometry    C10H20O
 Framework group  C1[X(C10H20O)]
 Deg. of freedom    87
 Full point group                 C1      NOp   1
 Largest Abelian subgroup         C1      NOp   1
 Largest concise Abelian subgroup C1      NOp   1
                         Standard orientation:                         
 ---------------------------------------------------------------------
 Center     Atomic      Atomic             Coordinates (Angstroms)
 Number     Number       Type             X           Y           Z
 ---------------------------------------------------------------------
      1          6           0        2.810185    0.637155   -0.832720
      2          6           0        2.300949   -0.320604    0.248374
      3          6           0       -0.004575    0.750789    0.663786
      4          6           0        0.125665   -1.632836   -0.181654
      5          6           0       -0.525828   -0.257892   -0.386182
      6          6           0        1.643804   -1.567412   -0.371248
      7          6           0        1.368446    0.381515    1.245244
      8          8           0        0.072487    2.039666    0.051058
      9          6           0       -2.078790   -0.358408   -0.461001
     10          6           0       -2.729357    0.989838   -0.785840
     11          6           0       -2.733623   -0.960573    0.786296
     12          1           0        3.574249    0.148121   -1.446939
     13          1           0        2.010948    0.968106   -1.501954
     14          1           0        3.266698    1.524715   -0.382136
     15          1           0        3.187935   -0.653025    0.804487
     16          1           0       -0.706095    0.848491    1.497990
     17          1           0       -0.288283   -2.365354   -0.884801
     18          1           0       -0.089273   -2.008894    0.826082
     19          1           0       -0.212845    0.097647   -1.379284
     20          1           0        1.877438   -1.629854   -1.441476
     21          1           0        2.081177   -2.467042    0.080244
     22          1           0        1.864983    1.270746    1.652459
     23          1           0        1.210762   -0.301156    2.091051
     24          1           0        0.348422    2.674294    0.734062
     25          1           0       -2.314534   -1.030428   -1.298026
     26          1           0       -2.634847    1.697456    0.043913
     27          1           0       -2.276661    1.438284   -1.676245
     28          1           0       -3.798314    0.860923   -0.988342
     29          1           0       -2.555005   -0.354239    1.678832
     30          1           0       -2.369239   -1.973362    0.981119
     31          1           0       -3.818667   -1.032191    0.650163
 ---------------------------------------------------------------------
 Rotational constants (GHZ):      1.7061503      0.7859627      0.6563083
 Standard basis: STO-3G (5D, 7F)
 There are    75 symmetry adapted basis functions of A   symmetry.
 Integral buffers will be    131072 words long.
 Raffenetti 1 integral format.
 Two-electron integral symmetry is turned on.
    75 basis functions,   225 primitive gaussians,    75 cartesian basis functions
    44 alpha electrons       44 beta electrons
       nuclear repulsion energy       701.2806321535 Hartrees.
 NAtoms=   31 NActive=   31 NUniq=   31 SFac= 1.00D+00 NAtFMM=   60 NAOKFM=F Big=F
 One-electron integrals computed using PRISM.
 NBasis=    75 RedAO= T  NBF=    75
 NBsUse=    75 1.00D-06 NBFU=    75
 Harris functional with IExCor=  205 diagonalized for initial guess.
 ExpMin= 1.69D-01 ExpMax= 1.31D+02 ExpMxC= 1.31D+02 IAcc=1 IRadAn=         1 AccDes= 0.00D+00
 HarFok:  IExCor=  205 AccDes= 0.00D+00 IRadAn=         1 IDoV= 1
 ScaDFX=  1.000000  1.000000  1.000000  1.000000
 FoFCou: FMM=F IPFlag=           0 FMFlag=      100000 FMFlg1=           0
         NFxFlg=           0 DoJE=T BraDBF=F KetDBF=T FulRan=T
         Omega=  0.000000  0.000000  1.000000  0.000000  0.000000 ICntrl=     500 IOpCl=  0
         NMat0=    1 NMatS0=    1 NMatT0=    0 NMatD0=    1 NMtDS0=    0 NMtDT0=    0
         I1Cent=           4 NGrid=           0.
 Petite list used in FoFCou.
 Initial guess orbital symmetries:
       Occupied  (A) (A) (A) (A) (A) (A) (A) (A) (A) (A) (A) (A)
                 (A) (A) (A) (A) (A) (A) (A) (A) (A) (A) (A) (A)
                 (A) (A) (A) (A) (A) (A) (A) (A) (A) (A) (A) (A)
                 (A) (A) (A) (A) (A) (A) (A) (A)
       Virtual   (A) (A) (A) (A) (A) (A) (A) (A) (A) (A) (A) (A)
                 (A) (A) (A) (A) (A) (A) (A) (A) (A) (A) (A) (A)
                 (A) (A) (A) (A) (A) (A) (A)
 The electronic state of the initial guess is 1-A.
 Requested convergence on RMS density matrix=1.00D-08 within 128 cycles.
 Requested convergence on MAX density matrix=1.00D-06.
 Requested convergence on             energy=1.00D-06.
 No special actions if energy rises.
 Keep R1 ints in memory in canonical form, NReq=4898789.
 SCF Done:  E(RHF) =  -459.610990995     A.U. after   10 cycles
             Convg  =    0.6645D-08             -V/T =  2.0089
 Range of M.O.s used for correlation:     1    75
 NBasis=    75 NAE=    44 NBE=    44 NFC=     0 NFV=     0
 NROrb=     75 NOA=    44 NOB=    44 NVA=    31 NVB=    31
          Differentiating once with respect to magnetic field using GIAOs.
          Electric field/nuclear overlap derivatives assumed to be zero.
          Keep R3 ints in memory in canonical form, NReq=4863575.
 FoFCou: FMM=F IPFlag=           0 FMFlag=           0 FMFlg1=           0
         NFxFlg=           0 DoJE=F BraDBF=F KetDBF=T FulRan=T
         Omega=  0.000000  0.000000  1.000000  0.000000  0.000000 ICntrl=    6100 IOpCl=  0
         NMat0=    1 NMatS0=    1 NMatT0=    0 NMatD0=    1 NMtDS0=    0 NMtDT0=    0
         I1Cent=           7 NGrid=          31.
 Symmetry not used in FoFCou.
          There are     3 degrees of freedom in the 1st order CPHF.  IDoFFX=0.
      3 vectors produced by pass  0 Test12= 4.55D-14 3.33D-08 XBig12= 6.78D+00 4.09D-01.
 AX will form     3 AO Fock derivatives at one time.
      3 vectors produced by pass  1 Test12= 4.55D-14 3.33D-08 XBig12= 1.02D-02 1.76D-02.
      3 vectors produced by pass  2 Test12= 4.55D-14 3.33D-08 XBig12= 7.32D-05 2.27D-03.
      3 vectors produced by pass  3 Test12= 4.55D-14 3.33D-08 XBig12= 1.47D-06 4.08D-04.
      3 vectors produced by pass  4 Test12= 4.55D-14 3.33D-08 XBig12= 2.15D-08 3.01D-05.
      3 vectors produced by pass  5 Test12= 4.55D-14 3.33D-08 XBig12= 2.68D-10 2.06D-06.
      3 vectors produced by pass  6 Test12= 4.55D-14 3.33D-08 XBig12= 2.03D-12 1.85D-07.
 Inverted reduced A of dimension    21 with in-core refinement.
 Calculating GIAO nuclear magnetic shielding tensors.
 SCF GIAO Magnetic shielding tensor (ppm):
      1  C    Isotropic =   220.2405   Anisotropy =    26.2512
   XX=   214.4232   YX=     8.7794   ZX=    -7.6725
   XY=    10.9675   YY=   224.0222   ZY=    -5.8268
   XZ=   -10.6974   YZ=    -7.6556   ZZ=   222.2763
   Eigenvalues:   206.6190   216.3613   237.7413
      2  C    Isotropic =   216.9708   Anisotropy =     4.3552
   XX=   217.4876   YX=     2.5793   ZX=    -3.3096
   XY=     1.5902   YY=   217.7793   ZY=     2.8147
   XZ=    -2.9214   YZ=     2.2070   ZZ=   215.6455
   Eigenvalues:   211.5983   219.4399   219.8743
      3  C    Isotropic =   189.5932   Anisotropy =    38.6121
   XX=   179.5349   YX=     4.0256   ZX=     5.4307
   XY=     4.4447   YY=   211.5649   ZY=   -11.2000
   XZ=     3.5158   YZ=   -11.8814   ZZ=   177.6797
   Eigenvalues:   170.6317   182.8133   215.3346
      4  C    Isotropic =   218.1526   Anisotropy =    13.9476
   XX=   224.8315   YX=    -2.9558   ZX=     1.5542
   XY=    -4.4576   YY=   221.9299   ZY=    -0.1129
   XZ=     3.3995   YZ=     2.7375   ZZ=   207.6963
   Eigenvalues:   207.1115   219.8952   227.4510
      5  C    Isotropic =   210.3934   Anisotropy =    11.1095
   XX=   217.5141   YX=     1.1394   ZX=     0.6849
   XY=     1.2506   YY=   210.8366   ZY=     2.2075
   XZ=     1.0161   YZ=     0.5569   ZZ=   202.8294
   Eigenvalues:   202.5697   210.8108   217.7997
      6  C    Isotropic =   216.7594   Anisotropy =    16.5911
   XX=   219.5353   YX=     7.0366   ZX=    -2.2846
   XY=     7.4821   YY=   219.9153   ZY=     8.0768
   XZ=    -1.5459   YZ=     5.3893   ZZ=   210.8275
   Eigenvalues:   205.1980   217.2600   227.8201
      7  C    Isotropic =   214.5179   Anisotropy =    12.3109
   XX=   221.8247   YX=    -1.9267   ZX=     2.7854
   XY=    -3.3168   YY=   213.9715   ZY=     5.5199
   XZ=     2.9033   YZ=     5.8636   ZZ=   207.7576
   Eigenvalues:   203.5926   217.2360   222.7252
      8  O    Isotropic =   347.4335   Anisotropy =    98.2258
   XX=   328.0683   YX=    21.6143   ZX=    21.4888
   XY=    10.1291   YY=   357.6151   ZY=    31.4474
   XZ=    42.8146   YZ=    52.6240   ZZ=   356.6171
   Eigenvalues:   303.8267   325.5564   412.9174
      9  C    Isotropic =   212.4738   Anisotropy =    16.9362
   XX=   223.4087   YX=    -1.6227   ZX=     4.2228
   XY=     0.1258   YY=   208.5246   ZY=    -3.2100
   XZ=     0.3548   YZ=    -1.1014   ZZ=   205.4880
   Eigenvalues:   204.2170   209.4398   223.7646
     10  C    Isotropic =   221.2487   Anisotropy =    24.4343
   XX=   221.2504   YX=    -8.3877   ZX=     3.6030
   XY=    -7.8996   YY=   229.3166   ZY=   -10.4991
   XZ=     1.5308   YZ=    -6.8747   ZZ=   213.1790
   Eigenvalues:   209.3006   216.9073   237.5382
     11  C    Isotropic =   224.5358   Anisotropy =    20.7287
   XX=   223.7205   YX=     4.4557   ZX=    -6.9289
   XY=     2.9022   YY=   221.2514   ZY=    -7.6364
   XZ=    -5.5315   YZ=   -10.6167   ZZ=   228.6356
   Eigenvalues:   215.0673   220.1852   238.3550
     12  H    Isotropic =    32.4404   Anisotropy =    14.5290
   XX=    35.7574   YX=    -1.1002   ZX=    -7.4903
   XY=    -1.1618   YY=    28.9424   ZY=     1.0072
   XZ=    -7.6498   YZ=     1.4376   ZZ=    32.6214
   Eigenvalues:    26.4352    28.7596    42.1264
     13  H    Isotropic =    32.1623   Anisotropy =     7.2655
   XX=    33.5101   YX=    -0.9702   ZX=     0.6745
   XY=    -0.7434   YY=    29.1651   ZY=    -4.5954
   XZ=     1.0460   YZ=    -4.5242   ZZ=    33.8118
   Eigenvalues:    26.3596    33.1214    37.0060
     14  H    Isotropic =    32.5747   Anisotropy =    13.5538
   XX=    32.8180   YX=     6.5175   ZX=    -0.7920
   XY=     6.8718   YY=    36.4125   ZY=     1.9214
   XZ=    -0.5570   YZ=     1.4002   ZZ=    28.4936
   Eigenvalues:    26.4698    29.6437    41.6106
     15  H    Isotropic =    32.3570   Anisotropy =    15.2528
   XX=    38.2392   YX=    -3.6212   ZX=     5.6446
   XY=    -3.4918   YY=    28.7303   ZY=    -1.9300
   XZ=     6.0581   YZ=    -2.2318   ZZ=    30.1015
   Eigenvalues:    26.9756    27.5699    42.5255
     16  H    Isotropic =    32.0226   Anisotropy =     8.6527
   XX=    34.7756   YX=    -0.0767   ZX=    -2.9474
   XY=     0.9230   YY=    27.8737   ZY=     2.0427
   XZ=    -4.0452   YZ=     2.4835   ZZ=    33.4186
   Eigenvalues:    26.7014    31.5754    37.7911
     17  H    Isotropic =    32.5303   Anisotropy =    13.2429
   XX=    32.2997   YX=     2.3501   ZX=     2.2175
   XY=     2.3875   YY=    36.0507   ZY=     6.7256
   XZ=     2.3199   YZ=     6.8063   ZZ=    29.2404
   Eigenvalues:    24.9995    31.2324    41.3589
     18  H    Isotropic =    32.7659   Anisotropy =    10.3236
   XX=    32.1781   YX=     0.6987   ZX=    -2.5840
   XY=     0.9549   YY=    32.8826   ZY=    -5.4897
   XZ=    -2.3966   YZ=    -6.1654   ZZ=    33.2372
   Eigenvalues:    26.9560    31.6934    39.6484
     19  H    Isotropic =    32.2001   Anisotropy =     8.4134
   XX=    32.5984   YX=     0.1400   ZX=    -1.8217
   XY=     0.0769   YY=    27.7066   ZY=    -3.1847
   XZ=    -1.4140   YZ=    -3.1401   ZZ=    36.2954
   Eigenvalues:    26.6397    32.1517    37.8091
     20  H    Isotropic =    32.4771   Anisotropy =    12.4024
   XX=    30.6215   YX=     0.2781   ZX=    -4.3958
   XY=     0.1608   YY=    29.7675   ZY=     4.3944
   XZ=    -4.6022   YZ=     4.4483   ZZ=    37.0423
   Eigenvalues:    26.2508    30.4351    40.7454
     21  H    Isotropic =    32.1379   Anisotropy =    15.1784
   XX=    31.5683   YX=    -5.0121   ZX=     1.5573
   XY=    -5.3426   YY=    38.9304   ZY=    -2.5528
   XZ=     2.0844   YZ=    -2.9288   ZZ=    25.9150
   Eigenvalues:    25.2262    28.9306    42.2568
     22  H    Isotropic =    32.9563   Anisotropy =    13.0874
   XX=    32.2383   YX=     3.4118   ZX=     2.9010
   XY=     3.5246   YY=    34.4013   ZY=     6.2918
   XZ=     3.2465   YZ=     5.6995   ZZ=    32.2291
   Eigenvalues:    27.2163    29.9713    41.6812
     23  H    Isotropic =    32.4559   Anisotropy =    12.1138
   XX=    29.0100   YX=    -0.0183   ZX=    -0.0348
   XY=    -0.2815   YY=    29.5362   ZY=    -4.5234
   XZ=     0.3970   YZ=    -4.1368   ZZ=    38.8216
   Eigenvalues:    27.8258    29.0102    40.5318
     24  H    Isotropic =    35.1306   Anisotropy =    19.0734
   XX=    27.9868   YX=     3.0982   ZX=     3.4987
   XY=     2.7688   YY=    44.1112   ZY=     5.5971
   XZ=     2.8404   YZ=     7.0866   ZZ=    33.2938
   Eigenvalues:    26.5066    31.0390    47.8462
     25  H    Isotropic =    32.4029   Anisotropy =    12.5631
   XX=    31.1026   YX=     1.7625   ZX=     3.8300
   XY=     1.6233   YY=    31.6179   ZY=     6.0650
   XZ=     3.5191   YZ=     5.8231   ZZ=    34.4881
   Eigenvalues:    26.6607    29.7696    40.7783
     26  H    Isotropic =    32.3218   Anisotropy =     8.9803
   XX=    31.2276   YX=    -2.2293   ZX=     1.1551
   XY=    -2.4067   YY=    35.4567   ZY=     4.3252
   XZ=     0.7960   YZ=     4.4429   ZZ=    30.2812
   Eigenvalues:    26.8269    31.8298    38.3087
     27  H    Isotropic =    32.1829   Anisotropy =    11.9217
   XX=    30.3590   YX=    -0.3133   ZX=    -0.2235
   XY=    -0.0942   YY=    31.2019   ZY=    -7.0544
   XZ=    -0.3021   YZ=    -6.4969   ZZ=    34.9877
   Eigenvalues:    26.0358    30.3821    40.1307
     28  H    Isotropic =    32.4679   Anisotropy =    14.9084
   XX=    40.8846   YX=    -1.8527   ZX=     4.1832
   XY=    -2.0318   YY=    28.7109   ZY=    -1.6812
   XZ=     3.8137   YZ=    -1.6734   ZZ=    27.8083
   Eigenvalues:    26.1494    28.8475    42.4068
     29  H    Isotropic =    32.8018   Anisotropy =     9.6790
   XX=    30.9206   YX=     1.4291   ZX=    -1.6548
   XY=     1.7158   YY=    29.4081   ZY=     3.0692
   XZ=    -1.9739   YZ=     3.0833   ZZ=    38.0768
   Eigenvalues:    27.2429    31.9081    39.2545
     30  H    Isotropic =    32.6290   Anisotropy =    11.3403
   XX=    31.5812   YX=    -0.6473   ZX=    -1.7620
   XY=    -0.4708   YY=    38.1494   ZY=    -4.6944
   XZ=    -1.6265   YZ=    -5.2087   ZZ=    28.1564
   Eigenvalues:    25.5899    32.1079    40.1892
     31  H    Isotropic =    32.5789   Anisotropy =    14.7392
   XX=    41.5674   YX=     3.0321   ZX=    -1.1942
   XY=     2.9958   YY=    28.2756   ZY=    -1.7212
   XZ=    -1.4120   YZ=    -1.7089   ZZ=    27.8937
   Eigenvalues:    26.2730    29.0586    42.4050
 End of Minotr Frequency-dependent properties file   721 does not exist.
 End of Minotr Frequency-dependent properties file   722 does not exist.

 **********************************************************************

            Population analysis using the SCF density.

 **********************************************************************

 Orbital symmetries:
       Occupied  (A) (A) (A) (A) (A) (A) (A) (A) (A) (A) (A) (A)
                 (A) (A) (A) (A) (A) (A) (A) (A) (A) (A) (A) (A)
                 (A) (A) (A) (A) (A) (A) (A) (A) (A) (A) (A) (A)
                 (A) (A) (A) (A) (A) (A) (A) (A)
       Virtual   (A) (A) (A) (A) (A) (A) (A) (A) (A) (A) (A) (A)
                 (A) (A) (A) (A) (A) (A) (A) (A) (A) (A) (A) (A)
                 (A) (A) (A) (A) (A) (A) (A)
 The electronic state is 1-A.
 Alpha  occ. eigenvalues --  -20.23408 -11.08425 -11.04381 -11.04366 -11.04234
 Alpha  occ. eigenvalues --  -11.03804 -11.03577 -11.03297 -11.02838 -11.02489
 Alpha  occ. eigenvalues --  -11.02254  -1.27556  -1.07931  -1.03355  -0.96497
 Alpha  occ. eigenvalues --   -0.94376  -0.88627  -0.87966  -0.79536  -0.78851
 Alpha  occ. eigenvalues --   -0.72550  -0.67878  -0.62557  -0.60860  -0.59427
 Alpha  occ. eigenvalues --   -0.57603  -0.55499  -0.54300  -0.53536  -0.51946
 Alpha  occ. eigenvalues --   -0.50285  -0.49673  -0.49580  -0.48758  -0.46149
 Alpha  occ. eigenvalues --   -0.45174  -0.43746  -0.42585  -0.41887  -0.40768
 Alpha  occ. eigenvalues --   -0.38860  -0.38352  -0.36828  -0.32686
 Alpha virt. eigenvalues --    0.52998   0.56280   0.57312   0.59543   0.60744
 Alpha virt. eigenvalues --    0.61797   0.62314   0.64123   0.65027   0.66238
 Alpha virt. eigenvalues --    0.68962   0.69338   0.70065   0.70807   0.71763
 Alpha virt. eigenvalues --    0.72984   0.73733   0.74279   0.76497   0.76958
 Alpha virt. eigenvalues --    0.77148   0.77613   0.79179   0.79791   0.80378
 Alpha virt. eigenvalues --    0.81122   0.82283   0.82982   0.86009   0.86284
 Alpha virt. eigenvalues --    0.87694
          Condensed to atoms (all electrons):
              1          2          3          4          5          6
     1  C    4.744024   0.364428  -0.000910   0.000475  -0.000199  -0.024152
     2  C    0.364428   4.745301  -0.019936  -0.020269  -0.005321   0.360242
     3  C   -0.000910  -0.019936   4.743535  -0.021974   0.358481  -0.003190
     4  C    0.000475  -0.020269  -0.021974   4.756096   0.362098   0.361929
     5  C   -0.000199  -0.005321   0.358481   0.362098   4.772662  -0.021749
     6  C   -0.024152   0.360242  -0.003190   0.361929  -0.021749   4.760036
     7  C   -0.023834   0.362012   0.356699  -0.008525  -0.020511  -0.022380
     8  O   -0.000274   0.000075   0.266074   0.000250  -0.018075   0.000012
     9  C    0.000001   0.000010  -0.018966  -0.021261   0.358857   0.000652
    10  C    0.000000   0.000000  -0.001578   0.000635  -0.021733  -0.000004
    11  C    0.000000   0.000000  -0.001735  -0.002322  -0.020278   0.000009
    12  H    0.382207  -0.020329  -0.000006   0.000008   0.000005  -0.002016
    13  H    0.382802  -0.019996  -0.000015   0.000092  -0.000445  -0.002155
    14  H    0.381981  -0.020261   0.000020  -0.000019   0.000008   0.001271
    15  H   -0.025996   0.383721   0.001206   0.001118   0.000022  -0.023890
    16  H   -0.000006   0.001212   0.376210   0.000343  -0.022740   0.000028
    17  H   -0.000015   0.001143   0.001157   0.383309  -0.020499  -0.021596
    18  H   -0.000013  -0.000347  -0.002430   0.381996  -0.022420  -0.023171
    19  H   -0.000545   0.000111  -0.023558  -0.024031   0.379146  -0.002935
    20  H   -0.006533  -0.021702   0.000031  -0.022615  -0.000699   0.382684
    21  H    0.001277  -0.022019   0.000000  -0.022903   0.001283   0.382539
    22  H   -0.002915  -0.021243  -0.021066   0.000089   0.000967   0.001181
    23  H    0.001354  -0.022842  -0.021541  -0.000553   0.000198  -0.001456
    24  H    0.000024   0.000009  -0.040799  -0.000042   0.002516  -0.000001
    25  H    0.000000  -0.000001   0.001082  -0.002349  -0.023458   0.000012
    26  H    0.000000   0.000000  -0.000314  -0.000001  -0.001314   0.000000
    27  H    0.000000   0.000000  -0.000017   0.000017  -0.002436   0.000000
    28  H    0.000000   0.000000   0.000007  -0.000014   0.001163   0.000000
    29  H    0.000000   0.000000  -0.000635   0.000011  -0.001534  -0.000002
    30  H    0.000000   0.000000   0.000049  -0.000854  -0.001506   0.000004
    31  H    0.000000   0.000000   0.000014   0.000027   0.001109   0.000000
              7          8          9         10         11         12
     1  C   -0.023834  -0.000274   0.000001   0.000000   0.000000   0.382207
     2  C    0.362012   0.000075   0.000010   0.000000   0.000000  -0.020329
     3  C    0.356699   0.266074  -0.018966  -0.001578  -0.001735  -0.000006
     4  C   -0.008525   0.000250  -0.021261   0.000635  -0.002322   0.000008
     5  C   -0.020511  -0.018075   0.358857  -0.021733  -0.020278   0.000005
     6  C   -0.022380   0.000012   0.000652  -0.000004   0.000009  -0.002016
     7  C    4.782892  -0.019791   0.000536   0.000005   0.000011   0.001258
     8  O   -0.019791   7.851452   0.000135  -0.000352   0.000006   0.000005
     9  C    0.000536   0.000135   4.739384   0.364472   0.364309   0.000000
    10  C    0.000005  -0.000352   0.364472   4.740347  -0.026117   0.000000
    11  C    0.000011   0.000006   0.364309  -0.026117   4.744239   0.000000
    12  H    0.001258   0.000005   0.000000   0.000000   0.000000   0.634782
    13  H   -0.001374   0.000098   0.000002   0.000000   0.000000  -0.022052
    14  H   -0.002593  -0.000005   0.000000   0.000000   0.000000  -0.021838
    15  H   -0.023799  -0.000010   0.000000   0.000000   0.000000  -0.003222
    16  H   -0.027938  -0.019788  -0.004011  -0.000211  -0.000721   0.000001
    17  H    0.000080  -0.000004  -0.002587   0.000018  -0.000047   0.000000
    18  H   -0.000391   0.000000  -0.001263  -0.000006  -0.000739  -0.000001
    19  H    0.000217  -0.001666  -0.024112  -0.002477   0.001159   0.000012
    20  H    0.001065   0.000000  -0.000001   0.000000  -0.000001  -0.000026
    21  H    0.000704   0.000000  -0.000015   0.000000   0.000000   0.000062
    22  H    0.381403  -0.002461  -0.000010   0.000000   0.000000   0.000036
    23  H    0.379568   0.000656  -0.000009   0.000000   0.000007  -0.000037
    24  H   -0.003177   0.257314  -0.000034   0.000014   0.000000  -0.000001
    25  H   -0.000013  -0.000008   0.381772  -0.024696  -0.025137   0.000000
    26  H    0.000004  -0.000075  -0.020307   0.382398  -0.002459   0.000000
    27  H   -0.000001  -0.000015  -0.020077   0.382696   0.001312   0.000000
    28  H    0.000000   0.000008  -0.020160   0.381957  -0.002065   0.000000
    29  H   -0.000013   0.000003  -0.020234  -0.001927   0.381958   0.000000
    30  H   -0.000003   0.000000  -0.019773   0.001323   0.382656   0.000000
    31  H    0.000000   0.000000  -0.019807  -0.002723   0.382362   0.000000
             13         14         15         16         17         18
     1  C    0.382802   0.381981  -0.025996  -0.000006  -0.000015  -0.000013
     2  C   -0.019996  -0.020261   0.383721   0.001212   0.001143  -0.000347
     3  C   -0.000015   0.000020   0.001206   0.376210   0.001157  -0.002430
     4  C    0.000092  -0.000019   0.001118   0.000343   0.383309   0.381996
     5  C   -0.000445   0.000008   0.000022  -0.022740  -0.020499  -0.022420
     6  C   -0.002155   0.001271  -0.023890   0.000028  -0.021596  -0.023171
     7  C   -0.001374  -0.002593  -0.023799  -0.027938   0.000080  -0.000391
     8  O    0.000098  -0.000005  -0.000010  -0.019788  -0.000004   0.000000
     9  C    0.000002   0.000000   0.000000  -0.004011  -0.002587  -0.001263
    10  C    0.000000   0.000000   0.000000  -0.000211   0.000018  -0.000006
    11  C    0.000000   0.000000   0.000000  -0.000721  -0.000047  -0.000739
    12  H   -0.022052  -0.021838  -0.003222   0.000001   0.000000  -0.000001
    13  H    0.620679  -0.021443   0.001952   0.000002  -0.000008  -0.000001
    14  H   -0.021443   0.633504  -0.001944  -0.000003   0.000001   0.000001
    15  H    0.001952  -0.001944   0.655139  -0.000037  -0.000027   0.000009
    16  H    0.000002  -0.000003  -0.000037   0.663968  -0.000027   0.000225
    17  H   -0.000008   0.000001  -0.000027  -0.000027   0.637838  -0.023759
    18  H   -0.000001   0.000001   0.000009   0.000225  -0.023759   0.647490
    19  H   -0.000296   0.000009  -0.000001   0.001737  -0.001852   0.001964
    20  H    0.000044   0.000104   0.001148   0.000001  -0.004718   0.001967
    21  H    0.000005  -0.000039  -0.007385   0.000002  -0.000419  -0.004936
    22  H    0.000020   0.000175  -0.001583  -0.000138   0.000000   0.000002
    23  H   -0.000006   0.000032  -0.003646  -0.004737   0.000013  -0.000594
    24  H   -0.000033   0.000000  -0.000002  -0.003662   0.000001   0.000000
    25  H    0.000000   0.000000   0.000000   0.000034   0.000194   0.000044
    26  H    0.000000   0.000000   0.000000  -0.000206  -0.000001   0.000001
    27  H    0.000000   0.000000   0.000000   0.000026   0.000002   0.000000
    28  H    0.000000   0.000000   0.000000  -0.000011  -0.000001   0.000000
    29  H    0.000000   0.000000   0.000000  -0.000386   0.000009   0.000033
    30  H    0.000000   0.000000   0.000000   0.000035  -0.000012  -0.000857
    31  H    0.000000   0.000000   0.000000  -0.000018  -0.000008   0.000005
             19         20         21         22         23         24
     1  C   -0.000545  -0.006533   0.001277  -0.002915   0.001354   0.000024
     2  C    0.000111  -0.021702  -0.022019  -0.021243  -0.022842   0.000009
     3  C   -0.023558   0.000031   0.000000  -0.021066  -0.021541  -0.040799
     4  C   -0.024031  -0.022615  -0.022903   0.000089  -0.000553  -0.000042
     5  C    0.379146  -0.000699   0.001283   0.000967   0.000198   0.002516
     6  C   -0.002935   0.382684   0.382539   0.001181  -0.001456  -0.000001
     7  C    0.000217   0.001065   0.000704   0.381403   0.379568  -0.003177
     8  O   -0.001666   0.000000   0.000000  -0.002461   0.000656   0.257314
     9  C   -0.024112  -0.000001  -0.000015  -0.000010  -0.000009  -0.000034
    10  C   -0.002477   0.000000   0.000000   0.000000   0.000000   0.000014
    11  C    0.001159  -0.000001   0.000000   0.000000   0.000007   0.000000
    12  H    0.000012  -0.000026   0.000062   0.000036  -0.000037  -0.000001
    13  H   -0.000296   0.000044   0.000005   0.000020  -0.000006  -0.000033
    14  H    0.000009   0.000104  -0.000039   0.000175   0.000032   0.000000
    15  H   -0.000001   0.001148  -0.007385  -0.001583  -0.003646  -0.000002
    16  H    0.001737   0.000001   0.000002  -0.000138  -0.004737  -0.003662
    17  H   -0.001852  -0.004718  -0.000419   0.000000   0.000013   0.000001
    18  H    0.001964   0.001967  -0.004936   0.000002  -0.000594   0.000000
    19  H    0.641418   0.000338   0.000026  -0.000038  -0.000004   0.000119
    20  H    0.000338   0.642629  -0.024189  -0.000032  -0.000002   0.000000
    21  H    0.000026  -0.024189   0.647554  -0.000025   0.000141   0.000000
    22  H   -0.000038  -0.000032  -0.000025   0.639427  -0.022691   0.000616
    23  H   -0.000004  -0.000002   0.000141  -0.022691   0.646675   0.000005
    24  H    0.000119   0.000000   0.000000   0.000616   0.000005   0.613163
    25  H   -0.002928   0.000002  -0.000001   0.000000   0.000000   0.000002
    26  H    0.000004   0.000000   0.000000   0.000000   0.000000   0.000040
    27  H    0.000245   0.000000   0.000000   0.000000   0.000000   0.000004
    28  H    0.000026   0.000000   0.000000   0.000000   0.000000  -0.000001
    29  H   -0.000003   0.000000   0.000000   0.000001   0.000008   0.000001
    30  H    0.000010   0.000000   0.000002   0.000000  -0.000001   0.000000
    31  H   -0.000029   0.000000   0.000000   0.000000   0.000000   0.000000
             25         26         27         28         29         30
     1  C    0.000000   0.000000   0.000000   0.000000   0.000000   0.000000
     2  C   -0.000001   0.000000   0.000000   0.000000   0.000000   0.000000
     3  C    0.001082  -0.000314  -0.000017   0.000007  -0.000635   0.000049
     4  C   -0.002349  -0.000001   0.000017  -0.000014   0.000011  -0.000854
     5  C   -0.023458  -0.001314  -0.002436   0.001163  -0.001534  -0.001506
     6  C    0.000012   0.000000   0.000000   0.000000  -0.000002   0.000004
     7  C   -0.000013   0.000004  -0.000001   0.000000  -0.000013  -0.000003
     8  O   -0.000008  -0.000075  -0.000015   0.000008   0.000003   0.000000
     9  C    0.381772  -0.020307  -0.020077  -0.020160  -0.020234  -0.019773
    10  C   -0.024696   0.382398   0.382696   0.381957  -0.001927   0.001323
    11  C   -0.025137  -0.002459   0.001312  -0.002065   0.381958   0.382656
    12  H    0.000000   0.000000   0.000000   0.000000   0.000000   0.000000
    13  H    0.000000   0.000000   0.000000   0.000000   0.000000   0.000000
    14  H    0.000000   0.000000   0.000000   0.000000   0.000000   0.000000
    15  H    0.000000   0.000000   0.000000   0.000000   0.000000   0.000000
    16  H    0.000034  -0.000206   0.000026  -0.000011  -0.000386   0.000035
    17  H    0.000194  -0.000001   0.000002  -0.000001   0.000009  -0.000012
    18  H    0.000044   0.000001   0.000000   0.000000   0.000033  -0.000857
    19  H   -0.002928   0.000004   0.000245   0.000026  -0.000003   0.000010
    20  H    0.000002   0.000000   0.000000   0.000000   0.000000   0.000000
    21  H   -0.000001   0.000000   0.000000   0.000000   0.000000   0.000002
    22  H    0.000000   0.000000   0.000000   0.000000   0.000001   0.000000
    23  H    0.000000   0.000000   0.000000   0.000000   0.000008  -0.000001
    24  H    0.000002   0.000040   0.000004  -0.000001   0.000001   0.000000
    25  H    0.654709   0.001927  -0.001887  -0.003081   0.001920  -0.002481
    26  H    0.001927   0.627162  -0.021068  -0.022245   0.000357   0.000014
    27  H   -0.001887  -0.021068   0.624402  -0.021804   0.000005  -0.000037
    28  H   -0.003081  -0.022245  -0.021804   0.635666  -0.000004   0.000021
    29  H    0.001920   0.000357   0.000005  -0.000004   0.633099  -0.021880
    30  H   -0.002481   0.000014  -0.000037   0.000021  -0.021880   0.631855
    31  H   -0.002336  -0.000022   0.000036   0.000096  -0.021965  -0.022148
             31
     1  C    0.000000
     2  C    0.000000
     3  C    0.000014
     4  C    0.000027
     5  C    0.001109
     6  C    0.000000
     7  C    0.000000
     8  O    0.000000
     9  C   -0.019807
    10  C   -0.002723
    11  C    0.382362
    12  H    0.000000
    13  H    0.000000
    14  H    0.000000
    15  H    0.000000
    16  H   -0.000018
    17  H   -0.000008
    18  H    0.000005
    19  H   -0.000029
    20  H    0.000000
    21  H    0.000000
    22  H    0.000000
    23  H    0.000000
    24  H    0.000000
    25  H   -0.002336
    26  H   -0.000022
    27  H    0.000036
    28  H    0.000096
    29  H   -0.021965
    30  H   -0.022148
    31  H    0.630843
 Mulliken atomic charges:
              1
     1  C   -0.173179
     2  C   -0.023997
     3  C    0.074105
     4  C   -0.100759
     5  C   -0.033599
     6  C   -0.101904
     7  C   -0.112112
     8  O   -0.313564
     9  C   -0.017507
    10  C   -0.172039
    11  C   -0.176408
    12  H    0.051153
    13  H    0.062126
    14  H    0.051039
    15  H    0.047226
    16  H    0.040817
    17  H    0.051816
    18  H    0.047189
    19  H    0.057936
    20  H    0.050504
    21  H    0.048335
    22  H    0.048285
    23  H    0.049464
    24  H    0.173925
    25  H    0.046679
    26  H    0.056103
    27  H    0.058599
    28  H    0.050442
    29  H    0.051176
    30  H    0.053581
    31  H    0.054566
 Sum of Mulliken atomic charges =   0.00000
 Mulliken charges with hydrogens summed into heavy atoms:
              1
     1  C   -0.008861
     2  C    0.023229
     3  C    0.114923
     4  C   -0.001754
     5  C    0.024337
     6  C   -0.003064
     7  C   -0.014362
     8  O   -0.139639
     9  C    0.029172
    10  C   -0.006896
    11  C   -0.017085
 Sum of Mulliken charges with hydrogens summed into heavy atoms =   0.00000
 Electronic spatial extent (au):  <R**2>=           2001.2779
 Charge=              0.0000 electrons
 Dipole moment (field-independent basis, Debye):
    X=              0.3088    Y=             -0.4185    Z=              1.1910  Tot=              1.2996
 Quadrupole moment (field-independent basis, Debye-Ang):
   XX=            -67.9862   YY=            -67.5871   ZZ=            -66.3065
   XY=              0.9206   XZ=              0.7252   YZ=              3.3566
 Traceless Quadrupole moment (field-independent basis, Debye-Ang):
   XX=             -0.6929   YY=             -0.2938   ZZ=              0.9867
   XY=              0.9206   XZ=              0.7252   YZ=              3.3566
 Octapole moment (field-independent basis, Debye-Ang**2):
  XXX=             -0.5845  YYY=             16.1728  ZZZ=             -0.2194  XYY=              3.8565
  XXY=              3.2609  XXZ=              0.2148  XZZ=              0.5829  YZZ=              5.7231
  YYZ=              8.5403  XYZ=              0.2933
 Hexadecapole moment (field-independent basis, Debye-Ang**3):
 XXXX=          -1626.1983 YYYY=           -582.4184 ZZZZ=           -319.0084 XXXY=              1.5229
 XXXZ=              6.7131 YYYX=             11.4619 YYYZ=             21.3312 ZZZX=             -0.4037
 ZZZY=              3.1941 XXYY=           -375.3102 XXZZ=           -328.1266 YYZZ=           -147.1860
 XXYZ=              6.3294 YYXZ=              5.2752 ZZXY=             -1.5455
 N-N= 7.012806321535D+02 E-N=-2.474740573746D+03  KE= 4.555424483833D+02
 ******************************Gaussian NBO Version 3.1******************************
             N A T U R A L   A T O M I C   O R B I T A L   A N D
          N A T U R A L   B O N D   O R B I T A L   A N A L Y S I S
 ******************************Gaussian NBO Version 3.1******************************
       /RESON  / : Allow strongly delocalized NBO set
       /NLMO   / : Form Natural Localized Molecular Orbitals
       /NMR /    : Analyze NMR Sheilding Tensor 

 Analyzing the SCF density

 Job title: comment                                                         

 Storage needed:     19864 in NPA,     23691 in NBO,     45933 in NLMO (  33549317 available)


 NATURAL POPULATIONS:  Natural atomic orbital occupancies 
                                                          
   NAO  Atom  No  lang   Type(AO)    Occupancy      Energy
 ----------------------------------------------------------
     1    C    1  S      Cor( 1S)     1.99997     -10.95849
     2    C    1  S      Val( 2S)     1.08130      -0.17625
     3    C    1  px     Val( 2p)     1.02611       0.08869
     4    C    1  py     Val( 2p)     1.01127       0.09318
     5    C    1  pz     Val( 2p)     1.00993       0.09287

     6    C    2  S      Cor( 1S)     1.99997     -10.98700
     7    C    2  S      Val( 2S)     1.08121      -0.19103
     8    C    2  px     Val( 2p)     0.97919       0.10649
     9    C    2  py     Val( 2p)     0.95905       0.11176
    10    C    2  pz     Val( 2p)     0.96616       0.11151

    11    C    3  S      Cor( 1S)     1.99988     -11.03357
    12    C    3  S      Val( 2S)     1.08999      -0.21683
    13    C    3  px     Val( 2p)     0.96844       0.09107
    14    C    3  py     Val( 2p)     0.85076       0.11241
    15    C    3  pz     Val( 2p)     0.94809       0.10095

    16    C    4  S      Cor( 1S)     1.99996     -10.97407
    17    C    4  S      Val( 2S)     1.08401      -0.18826
    18    C    4  px     Val( 2p)     0.97676       0.09767
    19    C    4  py     Val( 2p)     0.98503       0.09813
    20    C    4  pz     Val( 2p)     1.01761       0.09291

    21    C    5  S      Cor( 1S)     1.99995     -10.98761
    22    C    5  S      Val( 2S)     1.10000      -0.20698
    23    C    5  px     Val( 2p)     0.96367       0.10503
    24    C    5  py     Val( 2p)     0.96089       0.10905
    25    C    5  pz     Val( 2p)     0.98828       0.10076

    26    C    6  S      Cor( 1S)     1.99996     -10.97166
    27    C    6  S      Val( 2S)     1.08590      -0.18708
    28    C    6  px     Val( 2p)     0.97400       0.10320
    29    C    6  py     Val( 2p)     0.99226       0.09757
    30    C    6  pz     Val( 2p)     1.01230       0.09571

    31    C    7  S      Cor( 1S)     1.99996     -10.97678
    32    C    7  S      Val( 2S)     1.09385      -0.20070
    33    C    7  px     Val( 2p)     0.98622       0.09061
    34    C    7  py     Val( 2p)     1.01049       0.08791
    35    C    7  pz     Val( 2p)     0.99737       0.08529

    36    O    8  S      Cor( 1S)     1.99999     -20.13817
    37    O    8  S      Val( 2S)     1.75081      -0.99716
    38    O    8  px     Val( 2p)     1.91970      -0.34634
    39    O    8  py     Val( 2p)     1.14733      -0.02410
    40    O    8  pz     Val( 2p)     1.51710      -0.19543

    41    C    9  S      Cor( 1S)     1.99996     -10.98771
    42    C    9  S      Val( 2S)     1.08495      -0.19256
    43    C    9  px     Val( 2p)     0.94965       0.11638
    44    C    9  py     Val( 2p)     0.96899       0.11152
    45    C    9  pz     Val( 2p)     0.97307       0.11002

    46    C   10  S      Cor( 1S)     1.99997     -10.95632
    47    C   10  S      Val( 2S)     1.08062      -0.17350
    48    C   10  px     Val( 2p)     1.01832       0.09454
    49    C   10  py     Val( 2p)     0.99911       0.09689
    50    C   10  pz     Val( 2p)     1.03060       0.09128

    51    C   11  S      Cor( 1S)     1.99997     -10.96202
    52    C   11  S      Val( 2S)     1.07974      -0.17923
    53    C   11  px     Val( 2p)     1.02401       0.08394
    54    C   11  py     Val( 2p)     1.02259       0.08754
    55    C   11  pz     Val( 2p)     1.00624       0.09003

    56    H   12  S      Val( 1S)     0.96591       0.07782

    57    H   13  S      Val( 1S)     0.95640       0.08987

    58    H   14  S      Val( 1S)     0.96604       0.07859

    59    H   15  S      Val( 1S)     0.97708       0.06805

    60    H   16  S      Val( 1S)     0.99518       0.05091

    61    H   17  S      Val( 1S)     0.96890       0.07147

    62    H   18  S      Val( 1S)     0.97369       0.07008

    63    H   19  S      Val( 1S)     0.96767       0.07603

    64    H   20  S      Val( 1S)     0.97049       0.07399

    65    H   21  S      Val( 1S)     0.97235       0.07218

    66    H   22  S      Val( 1S)     0.97138       0.06107

    67    H   23  S      Val( 1S)     0.97073       0.06484

    68    H   24  S      Val( 1S)     0.81372       0.07517

    69    H   25  S      Val( 1S)     0.97850       0.06841

    70    H   26  S      Val( 1S)     0.96164       0.08614

    71    H   27  S      Val( 1S)     0.95920       0.08869

    72    H   28  S      Val( 1S)     0.96657       0.07949

    73    H   29  S      Val( 1S)     0.96596       0.07645

    74    H   30  S      Val( 1S)     0.96377       0.07791

    75    H   31  S      Val( 1S)     0.96234       0.07670


 Summary of Natural Population Analysis:                  
                                                          
                                       Natural Population 
                Natural  -----------------------------------------------
    Atom  No    Charge         Core      Valence    Rydberg      Total
 -----------------------------------------------------------------------
      C    1   -0.12858      1.99997     4.12861    0.00000     6.12858
      C    2    0.01442      1.99997     3.98561    0.00000     5.98558
      C    3    0.14283      1.99988     3.85729    0.00000     5.85717
      C    4   -0.06337      1.99996     4.06341    0.00000     6.06337
      C    5   -0.01278      1.99995     4.01284    0.00000     6.01278
      C    6   -0.06442      1.99996     4.06446    0.00000     6.06442
      C    7   -0.08789      1.99996     4.08793    0.00000     6.08789
      O    8   -0.33493      1.99999     6.33494    0.00000     8.33493
      C    9    0.02338      1.99996     3.97666    0.00000     5.97662
      C   10   -0.12862      1.99997     4.12865    0.00000     6.12862
      C   11   -0.13255      1.99997     4.13258    0.00000     6.13255
      H   12    0.03409      0.00000     0.96591    0.00000     0.96591
      H   13    0.04360      0.00000     0.95640    0.00000     0.95640
      H   14    0.03396      0.00000     0.96604    0.00000     0.96604
      H   15    0.02292      0.00000     0.97708    0.00000     0.97708
      H   16    0.00482      0.00000     0.99518    0.00000     0.99518
      H   17    0.03110      0.00000     0.96890    0.00000     0.96890
      H   18    0.02631      0.00000     0.97369    0.00000     0.97369
      H   19    0.03233      0.00000     0.96767    0.00000     0.96767
      H   20    0.02951      0.00000     0.97049    0.00000     0.97049
      H   21    0.02765      0.00000     0.97235    0.00000     0.97235
      H   22    0.02862      0.00000     0.97138    0.00000     0.97138
      H   23    0.02927      0.00000     0.97073    0.00000     0.97073
      H   24    0.18628      0.00000     0.81372    0.00000     0.81372
      H   25    0.02150      0.00000     0.97850    0.00000     0.97850
      H   26    0.03836      0.00000     0.96164    0.00000     0.96164
      H   27    0.04080      0.00000     0.95920    0.00000     0.95920
      H   28    0.03343      0.00000     0.96657    0.00000     0.96657
      H   29    0.03404      0.00000     0.96596    0.00000     0.96596
      H   30    0.03623      0.00000     0.96377    0.00000     0.96377
      H   31    0.03766      0.00000     0.96234    0.00000     0.96234
 =======================================================================
   * Total *    0.00000     21.99954    66.00046    0.00000    88.00000

                                 Natural Population      
 --------------------------------------------------------
   Core                      21.99954 ( 99.9979% of  22)
   Valence                   66.00046 (100.0007% of  66)
   Natural Minimal Basis     88.00000 (100.0000% of  88)
   Natural Rydberg Basis      0.00000 (  0.0000% of  88)
 --------------------------------------------------------

    Atom  No          Natural Electron Configuration
 ----------------------------------------------------------------------------
      C    1      [core]2S( 1.08)2p( 3.05)
      C    2      [core]2S( 1.08)2p( 2.90)
      C    3      [core]2S( 1.09)2p( 2.77)
      C    4      [core]2S( 1.08)2p( 2.98)
      C    5      [core]2S( 1.10)2p( 2.91)
      C    6      [core]2S( 1.09)2p( 2.98)
      C    7      [core]2S( 1.09)2p( 2.99)
      O    8      [core]2S( 1.75)2p( 4.58)
      C    9      [core]2S( 1.08)2p( 2.89)
      C   10      [core]2S( 1.08)2p( 3.05)
      C   11      [core]2S( 1.08)2p( 3.05)
      H   12            1S( 0.97)
      H   13            1S( 0.96)
      H   14            1S( 0.97)
      H   15            1S( 0.98)
      H   16            1S( 1.00)
      H   17            1S( 0.97)
      H   18            1S( 0.97)
      H   19            1S( 0.97)
      H   20            1S( 0.97)
      H   21            1S( 0.97)
      H   22            1S( 0.97)
      H   23            1S( 0.97)
      H   24            1S( 0.81)
      H   25            1S( 0.98)
      H   26            1S( 0.96)
      H   27            1S( 0.96)
      H   28            1S( 0.97)
      H   29            1S( 0.97)
      H   30            1S( 0.96)
      H   31            1S( 0.96)


 NATURAL BOND ORBITAL ANALYSIS:

                       Occupancies       Lewis Structure    Low   High
           Occ.    -------------------  -----------------   occ   occ
  Cycle   Thresh.   Lewis   Non-Lewis     CR  BD  3C  LP    (L)   (NL)   Dev
 =============================================================================
   1(1)    1.90    87.64451   0.35549     11  31   0   2     0      0    0.02
 -----------------------------------------------------------------------------

 Structure accepted: No low occupancy Lewis orbitals

 --------------------------------------------------------
   Core                     21.99954 ( 99.998% of  22)
   Valence Lewis            65.64497 ( 99.462% of  66)
  ==================       ============================
   Total Lewis              87.64451 ( 99.596% of  88)
  -----------------------------------------------------
   Valence non-Lewis         0.35549 (  0.404% of  88)
   Rydberg non-Lewis         0.00000 (  0.000% of  88)
  ==================       ============================
   Total non-Lewis           0.35549 (  0.404% of  88)
 --------------------------------------------------------


       (Occupancy)   Bond orbital/ Coefficients/ Hybrids
 ---------------------------------------------------------------------------------
     1. (1.99081) BD ( 1) C   1 - C   2  
                ( 50.74%)   0.7123* C   1 s( 25.76%)p 2.88( 74.24%)
                                            0.0001  0.5076 -0.2986 -0.5350  0.6058
                ( 49.26%)   0.7018* C   2 s( 25.07%)p 2.99( 74.93%)
                                            0.0000  0.5007  0.2525  0.5465 -0.6219
     2. (1.99467) BD ( 1) C   1 - H  12  
                ( 51.70%)   0.7190* C   1 s( 24.54%)p 3.08( 75.46%)
                                            0.0000  0.4953  0.6036 -0.4053 -0.4755
                ( 48.30%)   0.6950* H  12 s(100.00%)
                                            1.0000
     3. (1.99530) BD ( 1) C   1 - H  13  
                ( 52.24%)   0.7228* C   1 s( 25.00%)p 3.00( 75.00%)
                                            0.0000  0.5000 -0.6482  0.2516 -0.5163
                ( 47.76%)   0.6911* H  13 s(100.00%)
                                            1.0000
     4. (1.99499) BD ( 1) C   1 - H  14  
                ( 51.71%)   0.7191* C   1 s( 24.70%)p 3.05( 75.30%)
                                            0.0000  0.4970  0.3556  0.6973  0.3747
                ( 48.29%)   0.6949* H  14 s(100.00%)
                                            1.0000
     5. (1.98519) BD ( 1) C   2 - C   6  
                ( 49.62%)   0.7044* C   2 s( 25.29%)p 2.95( 74.71%)
                                            0.0000  0.5029 -0.3921 -0.6836 -0.3550
                ( 50.38%)   0.7098* C   6 s( 25.72%)p 2.89( 74.28%)
                                            0.0001  0.5072  0.3413  0.7096  0.3503
     6. (1.98595) BD ( 1) C   2 - C   7  
                ( 49.33%)   0.7023* C   2 s( 25.27%)p 2.96( 74.73%)
                                            0.0000  0.5027 -0.5442  0.4027  0.5376
                ( 50.67%)   0.7119* C   7 s( 25.30%)p 2.95( 74.70%)
                                            0.0001  0.5030  0.5064 -0.3810 -0.5877
     7. (1.98578) BD ( 1) C   2 - H  15  
                ( 51.04%)   0.7145* C   2 s( 24.37%)p 3.10( 75.63%)
                                            0.0000  0.4937  0.6974 -0.2680  0.4451
                ( 48.96%)   0.6997* H  15 s(100.00%)
                                            1.0000
     8. (1.98195) BD ( 1) C   3 - C   5  
                ( 50.76%)   0.7124* C   3 s( 26.96%)p 2.71( 73.04%)
                                            0.0000  0.5192 -0.2772 -0.5559 -0.5871
                ( 49.24%)   0.7017* C   5 s( 25.25%)p 2.96( 74.75%)
                                            0.0001  0.5025  0.2697  0.5529  0.6075
     9. (1.98769) BD ( 1) C   3 - C   7  
                ( 49.28%)   0.7020* C   3 s( 25.78%)p 2.88( 74.22%)
                                            0.0000  0.5077  0.7781 -0.2242  0.2940
                ( 50.72%)   0.7122* C   7 s( 25.38%)p 2.94( 74.62%)
                                            0.0000  0.5038 -0.7603  0.2035 -0.3559
    10. (1.98891) BD ( 1) C   3 - O   8  
                ( 40.99%)   0.6402* C   3 s( 21.83%)p 3.58( 78.17%)
                                            0.0000  0.4672  0.0666  0.7983 -0.3741
                ( 59.01%)   0.7682* O   8 s( 16.37%)p 5.11( 83.63%)
                                            0.0000  0.4045 -0.0319 -0.7993  0.4433
    11. (1.98842) BD ( 1) C   3 - H  16  
                ( 50.53%)   0.7109* C   3 s( 25.44%)p 2.93( 74.56%)
                                            0.0000  0.5043 -0.5597  0.0584  0.6550
                ( 49.47%)   0.7033* H  16 s(100.00%)
                                            1.0000
    12. (1.98413) BD ( 1) C   4 - C   5  
                ( 50.36%)   0.7096* C   4 s( 25.30%)p 2.95( 74.70%)
                                            0.0001  0.5030 -0.3646  0.7750 -0.1155
                ( 49.64%)   0.7046* C   5 s( 25.21%)p 2.97( 74.79%)
                                            0.0000  0.5021  0.3451 -0.7803  0.1415
    13. (1.98948) BD ( 1) C   4 - C   6  
                ( 50.01%)   0.7072* C   4 s( 25.04%)p 2.99( 74.96%)
                                            0.0000  0.5004  0.8565  0.0618 -0.1101
                ( 49.99%)   0.7070* C   6 s( 25.28%)p 2.95( 74.72%)
                                            0.0000  0.5028 -0.8565 -0.0048  0.1162
    14. (1.98974) BD ( 1) C   4 - H  17  
                ( 51.52%)   0.7178* C   4 s( 25.08%)p 2.99( 74.92%)
                                            0.0000  0.5008 -0.3254 -0.5632 -0.5711
                ( 48.48%)   0.6963* H  17 s(100.00%)
                                            1.0000
    15. (1.99070) BD ( 1) C   4 - H  18  
                ( 51.35%)   0.7166* C   4 s( 24.57%)p 3.07( 75.43%)
                                            0.0000  0.4957 -0.1659 -0.2798  0.8053
                ( 48.65%)   0.6975* H  18 s(100.00%)
                                            1.0000
    16. (1.97930) BD ( 1) C   5 - C   9  
                ( 50.18%)   0.7084* C   5 s( 25.31%)p 2.95( 74.69%)
                                            0.0000  0.5031 -0.8623 -0.0546  0.0165
                ( 49.82%)   0.7058* C   9 s( 25.38%)p 2.94( 74.62%)
                                            0.0001  0.5038  0.8564  0.0729  0.0865
    17. (1.98194) BD ( 1) C   5 - H  19  
                ( 51.49%)   0.7175* C   5 s( 24.22%)p 3.13( 75.78%)
                                            0.0000  0.4922  0.2540  0.2873 -0.7814
                ( 48.51%)   0.6965* H  19 s(100.00%)
                                            1.0000
    18. (1.99139) BD ( 1) C   6 - H  20  
                ( 51.49%)   0.7176* C   6 s( 24.75%)p 3.04( 75.25%)
                                            0.0000  0.4975  0.1770 -0.0217 -0.8489
                ( 48.51%)   0.6965* H  20 s(100.00%)
                                            1.0000
    19. (1.99145) BD ( 1) C   6 - H  21  
                ( 51.35%)   0.7166* C   6 s( 24.24%)p 3.13( 75.76%)
                                            0.0000  0.4923  0.3443 -0.7042  0.3783
                ( 48.65%)   0.6975* H  21 s(100.00%)
                                            1.0000
    20. (1.98732) BD ( 1) C   7 - H  22  
                ( 51.36%)   0.7167* C   7 s( 25.29%)p 2.95( 74.71%)
                                            0.0000  0.5029  0.3845  0.7142  0.2987
                ( 48.64%)   0.6974* H  22 s(100.00%)
                                            1.0000
    21. (1.98910) BD ( 1) C   7 - H  23  
                ( 51.40%)   0.7169* C   7 s( 24.03%)p 3.16( 75.97%)
                                            0.0000  0.4902 -0.1327 -0.5508  0.6624
                ( 48.60%)   0.6971* H  23 s(100.00%)
                                            1.0000
    22. (1.98952) BD ( 1) O   8 - H  24  
                ( 59.34%)   0.7703* O   8 s( 16.78%)p 4.96( 83.22%)
                                            0.0000  0.4097  0.2600  0.5664  0.6661
                ( 40.66%)   0.6377* H  24 s(100.00%)
                                            1.0000
    23. (1.98937) BD ( 1) C   9 - C  10  
                ( 49.26%)   0.7018* C   9 s( 25.16%)p 2.97( 74.84%)
                                            0.0000  0.5016 -0.3449  0.7767 -0.1618
                ( 50.74%)   0.7123* C  10 s( 25.69%)p 2.89( 74.31%)
                                            0.0001  0.5068  0.3734 -0.7537  0.1889
    24. (1.99041) BD ( 1) C   9 - C  11  
                ( 48.87%)   0.6991* C   9 s( 25.22%)p 2.97( 74.78%)
                                            0.0000  0.5021 -0.3410 -0.3246  0.7254
                ( 51.13%)   0.7151* C  11 s( 25.91%)p 2.86( 74.09%)
                                            0.0001  0.5090  0.3803  0.3408 -0.6929
    25. (1.98386) BD ( 1) C   9 - H  25  
                ( 50.95%)   0.7138* C   9 s( 24.25%)p 3.12( 75.75%)
                                            0.0000  0.4924 -0.1771 -0.5348 -0.6634
                ( 49.05%)   0.7004* H  25 s(100.00%)
                                            1.0000
    26. (1.99552) BD ( 1) C  10 - H  26  
                ( 51.97%)   0.7209* C  10 s( 24.92%)p 3.01( 75.08%)
                                            0.0000  0.4992  0.0889  0.5468  0.6663
                ( 48.03%)   0.6930* H  26 s(100.00%)
                                            1.0000
    27. (1.99506) BD ( 1) C  10 - H  27  
                ( 52.06%)   0.7215* C  10 s( 24.83%)p 3.03( 75.17%)
                                            0.0000  0.4983  0.3717  0.3427 -0.7043
                ( 47.94%)   0.6924* H  27 s(100.00%)
                                            1.0000
    28. (1.99461) BD ( 1) C  10 - H  28  
                ( 51.67%)   0.7188* C  10 s( 24.56%)p 3.07( 75.44%)
                                            0.0000  0.4955 -0.8453 -0.1247 -0.1562
                ( 48.33%)   0.6952* H  28 s(100.00%)
                                            1.0000
    29. (1.99464) BD ( 1) C  11 - H  29  
                ( 51.75%)   0.7194* C  11 s( 24.87%)p 3.02( 75.13%)
                                            0.0000  0.4987  0.1574  0.4931  0.6953
                ( 48.25%)   0.6946* H  29 s(100.00%)
                                            1.0000
    30. (1.99487) BD ( 1) C  11 - H  30  
                ( 51.84%)   0.7200* C  11 s( 24.72%)p 3.05( 75.28%)
                                            0.0000  0.4972  0.3071 -0.7992  0.1406
                ( 48.16%)   0.6940* H  30 s(100.00%)
                                            1.0000
    31. (1.99420) BD ( 1) C  11 - H  31  
                ( 51.87%)   0.7202* C  11 s( 24.51%)p 3.08( 75.49%)
                                            0.0000  0.4951 -0.8580 -0.0445 -0.1292
                ( 48.13%)   0.6938* H  31 s(100.00%)
                                            1.0000
    32. (1.99997) CR ( 1) C   1           s(100.00%)
                                            1.0000  0.0000  0.0000  0.0000  0.0000
    33. (1.99997) CR ( 1) C   2           s(100.00%)
                                            1.0000  0.0000  0.0000  0.0000  0.0000
    34. (1.99988) CR ( 1) C   3           s(100.00%)
                                            1.0000  0.0000  0.0000  0.0000  0.0000
    35. (1.99996) CR ( 1) C   4           s(100.00%)
                                            1.0000  0.0000  0.0000 -0.0001  0.0000
    36. (1.99995) CR ( 1) C   5           s(100.00%)
                                            1.0000 -0.0001  0.0000  0.0000  0.0000
    37. (1.99996) CR ( 1) C   6           s(100.00%)
                                            1.0000  0.0000  0.0000 -0.0001  0.0000
    38. (1.99996) CR ( 1) C   7           s(100.00%)
                                            1.0000  0.0000  0.0000  0.0000  0.0001
    39. (1.99999) CR ( 1) O   8           s(100.00%)
                                            1.0000  0.0000  0.0000  0.0000  0.0000
    40. (1.99996) CR ( 1) C   9           s(100.00%)
                                            1.0000  0.0000 -0.0001  0.0000  0.0000
    41. (1.99997) CR ( 1) C  10           s(100.00%)
                                            1.0000  0.0000 -0.0001  0.0001  0.0000
    42. (1.99997) CR ( 1) C  11           s(100.00%)
                                            1.0000  0.0000 -0.0001  0.0000  0.0000
    43. (1.99337) LP ( 1) O   8           s( 66.79%)p 0.50( 33.21%)
                                            0.0000  0.8172 -0.0840  0.1063 -0.5602
    44. (1.97534) LP ( 2) O   8           s(  0.07%)p99.99( 99.93%)
                                            0.0000  0.0259 -0.9614  0.1704  0.2144
    45. (0.01039) BD*( 1) C   1 - C   2  
                ( 49.26%)   0.7018* C   1 s( 25.76%)p 2.88( 74.24%)
                                           -0.0001 -0.5076  0.2986  0.5350 -0.6058
                ( 50.74%)  -0.7123* C   2 s( 25.07%)p 2.99( 74.93%)
                                            0.0000 -0.5007 -0.2525 -0.5465  0.6219
    46. (0.00477) BD*( 1) C   1 - H  12  
                ( 48.30%)   0.6950* C   1 s( 24.54%)p 3.08( 75.46%)
                                            0.0000 -0.4953 -0.6036  0.4053  0.4755
                ( 51.70%)  -0.7190* H  12 s(100.00%)
                                           -1.0000
    47. (0.00658) BD*( 1) C   1 - H  13  
                ( 47.76%)   0.6911* C   1 s( 25.00%)p 3.00( 75.00%)
                                            0.0000 -0.5000  0.6482 -0.2516  0.5163
                ( 52.24%)  -0.7228* H  13 s(100.00%)
                                           -1.0000
    48. (0.00530) BD*( 1) C   1 - H  14  
                ( 48.29%)   0.6949* C   1 s( 24.70%)p 3.05( 75.30%)
                                            0.0000 -0.4970 -0.3556 -0.6973 -0.3747
                ( 51.71%)  -0.7191* H  14 s(100.00%)
                                           -1.0000
    49. (0.01710) BD*( 1) C   2 - C   6  
                ( 50.38%)   0.7098* C   2 s( 25.29%)p 2.95( 74.71%)
                                            0.0000  0.5029 -0.3921 -0.6836 -0.3550
                ( 49.62%)  -0.7044* C   6 s( 25.72%)p 2.89( 74.28%)
                                            0.0001  0.5072  0.3413  0.7096  0.3503
    50. (0.01595) BD*( 1) C   2 - C   7  
                ( 50.67%)   0.7119* C   2 s( 25.27%)p 2.96( 74.73%)
                                            0.0000  0.5027 -0.5442  0.4027  0.5376
                ( 49.33%)  -0.7023* C   7 s( 25.30%)p 2.95( 74.70%)
                                            0.0001  0.5030  0.5064 -0.3810 -0.5877
    51. (0.00966) BD*( 1) C   2 - H  15  
                ( 48.96%)   0.6997* C   2 s( 24.37%)p 3.10( 75.63%)
                                            0.0000 -0.4937 -0.6974  0.2680 -0.4451
                ( 51.04%)  -0.7145* H  15 s(100.00%)
                                           -1.0000
    52. (0.02718) BD*( 1) C   3 - C   5  
                ( 49.24%)   0.7017* C   3 s( 26.96%)p 2.71( 73.04%)
                                            0.0000 -0.5192  0.2772  0.5559  0.5871
                ( 50.76%)  -0.7124* C   5 s( 25.25%)p 2.96( 74.75%)
                                           -0.0001 -0.5025 -0.2697 -0.5529 -0.6075
    53. (0.02841) BD*( 1) C   3 - C   7  
                ( 50.72%)   0.7122* C   3 s( 25.78%)p 2.88( 74.22%)
                                            0.0000  0.5077  0.7781 -0.2242  0.2940
                ( 49.28%)  -0.7020* C   7 s( 25.38%)p 2.94( 74.62%)
                                            0.0000  0.5038 -0.7603  0.2035 -0.3559
    54. (0.02157) BD*( 1) C   3 - O   8  
                ( 59.01%)   0.7682* C   3 s( 21.83%)p 3.58( 78.17%)
                                            0.0000  0.4672  0.0666  0.7983 -0.3741
                ( 40.99%)  -0.6402* O   8 s( 16.37%)p 5.11( 83.63%)
                                            0.0000  0.4045 -0.0319 -0.7993  0.4433
    55. (0.02286) BD*( 1) C   3 - H  16  
                ( 49.47%)   0.7033* C   3 s( 25.44%)p 2.93( 74.56%)
                                            0.0000 -0.5043  0.5597 -0.0584 -0.6550
                ( 50.53%)  -0.7109* H  16 s(100.00%)
                                           -1.0000
    56. (0.01499) BD*( 1) C   4 - C   5  
                ( 49.64%)   0.7046* C   4 s( 25.30%)p 2.95( 74.70%)
                                           -0.0001 -0.5030  0.3646 -0.7750  0.1155
                ( 50.36%)  -0.7096* C   5 s( 25.21%)p 2.97( 74.79%)
                                            0.0000 -0.5021 -0.3451  0.7803 -0.1415
    57. (0.01130) BD*( 1) C   4 - C   6  
                ( 49.99%)   0.7070* C   4 s( 25.04%)p 2.99( 74.96%)
                                            0.0000 -0.5004 -0.8565 -0.0618  0.1101
                ( 50.01%)  -0.7072* C   6 s( 25.28%)p 2.95( 74.72%)
                                            0.0000 -0.5028  0.8565  0.0048 -0.1162
    58. (0.00834) BD*( 1) C   4 - H  17  
                ( 48.48%)   0.6963* C   4 s( 25.08%)p 2.99( 74.92%)
                                            0.0000 -0.5008  0.3254  0.5632  0.5711
                ( 51.52%)  -0.7178* H  17 s(100.00%)
                                           -1.0000
    59. (0.01000) BD*( 1) C   4 - H  18  
                ( 48.65%)   0.6975* C   4 s( 24.57%)p 3.07( 75.43%)
                                            0.0000 -0.4957  0.1659  0.2798 -0.8053
                ( 51.35%)  -0.7166* H  18 s(100.00%)
                                           -1.0000
    60. (0.02220) BD*( 1) C   5 - C   9  
                ( 49.82%)   0.7058* C   5 s( 25.31%)p 2.95( 74.69%)
                                            0.0000 -0.5031  0.8623  0.0546 -0.0165
                ( 50.18%)  -0.7084* C   9 s( 25.38%)p 2.94( 74.62%)
                                           -0.0001 -0.5038 -0.8564 -0.0729 -0.0865
    61. (0.01196) BD*( 1) C   5 - H  19  
                ( 48.51%)   0.6965* C   5 s( 24.22%)p 3.13( 75.78%)
                                            0.0000 -0.4922 -0.2540 -0.2873  0.7814
                ( 51.49%)  -0.7175* H  19 s(100.00%)
                                           -1.0000
    62. (0.00882) BD*( 1) C   6 - H  20  
                ( 48.51%)   0.6965* C   6 s( 24.75%)p 3.04( 75.25%)
                                            0.0000 -0.4975 -0.1770  0.0217  0.8489
                ( 51.49%)  -0.7176* H  20 s(100.00%)
                                           -1.0000
    63. (0.00686) BD*( 1) C   6 - H  21  
                ( 48.65%)   0.6975* C   6 s( 24.24%)p 3.13( 75.76%)
                                            0.0000 -0.4923 -0.3443  0.7042 -0.3783
                ( 51.35%)  -0.7166* H  21 s(100.00%)
                                           -1.0000
    64. (0.00934) BD*( 1) C   7 - H  22  
                ( 48.64%)   0.6974* C   7 s( 25.29%)p 2.95( 74.71%)
                                            0.0000 -0.5029 -0.3845 -0.7142 -0.2987
                ( 51.36%)  -0.7167* H  22 s(100.00%)
                                           -1.0000
    65. (0.00780) BD*( 1) C   7 - H  23  
                ( 48.60%)   0.6971* C   7 s( 24.03%)p 3.16( 75.97%)
                                            0.0000 -0.4902  0.1327  0.5508 -0.6624
                ( 51.40%)  -0.7169* H  23 s(100.00%)
                                           -1.0000
    66. (0.00792) BD*( 1) O   8 - H  24  
                ( 40.66%)   0.6377* O   8 s( 16.78%)p 4.96( 83.22%)
                                            0.0000 -0.4097 -0.2600 -0.5664 -0.6661
                ( 59.34%)  -0.7703* H  24 s(100.00%)
                                           -1.0000
    67. (0.01031) BD*( 1) C   9 - C  10  
                ( 50.74%)   0.7123* C   9 s( 25.16%)p 2.97( 74.84%)
                                            0.0000  0.5016 -0.3449  0.7767 -0.1618
                ( 49.26%)  -0.7018* C  10 s( 25.69%)p 2.89( 74.31%)
                                            0.0001  0.5068  0.3734 -0.7537  0.1889
    68. (0.01130) BD*( 1) C   9 - C  11  
                ( 51.13%)   0.7151* C   9 s( 25.22%)p 2.97( 74.78%)
                                            0.0000  0.5021 -0.3410 -0.3246  0.7254
                ( 48.87%)  -0.6991* C  11 s( 25.91%)p 2.86( 74.09%)
                                            0.0001  0.5090  0.3803  0.3408 -0.6929
    69. (0.01053) BD*( 1) C   9 - H  25  
                ( 49.05%)   0.7004* C   9 s( 24.25%)p 3.12( 75.75%)
                                            0.0000 -0.4924  0.1771  0.5348  0.6634
                ( 50.95%)  -0.7138* H  25 s(100.00%)
                                           -1.0000
    70. (0.00624) BD*( 1) C  10 - H  26  
                ( 48.03%)   0.6930* C  10 s( 24.92%)p 3.01( 75.08%)
                                            0.0000 -0.4992 -0.0889 -0.5468 -0.6663
                ( 51.97%)  -0.7209* H  26 s(100.00%)
                                           -1.0000
    71. (0.00523) BD*( 1) C  10 - H  27  
                ( 47.94%)   0.6924* C  10 s( 24.83%)p 3.03( 75.17%)
                                            0.0000 -0.4983 -0.3717 -0.3427  0.7043
                ( 52.06%)  -0.7215* H  27 s(100.00%)
                                           -1.0000
    72. (0.00489) BD*( 1) C  10 - H  28  
                ( 48.33%)   0.6952* C  10 s( 24.56%)p 3.07( 75.44%)
                                            0.0000 -0.4955  0.8453  0.1247  0.1562
[...]
   21      -0.7094       -1.1251       0.4157        -1.0474       0.3380
   22      16.1536        7.1757       8.9779         1.7622      14.3914
   39     271.1734       -0.0053     271.1787        -0.0041     271.1774
   43      32.1466       -4.2966      36.4433        -5.3202      37.4668
   44       1.8428      -37.2653      39.1081       -38.1280      39.9707
 Sum      345.8757      -28.9361     374.8118       -31.4793     377.3551

 Contributions to Isotropic shielding for atom    9 (   212.4738 ppm):
                         Standard Origin              Atomic Origin
 NLMO      Total    Paramagnetic  Diamagnetic   Paramagnetic  Diamagnetic
   10       0.1193       -0.2180       0.3373        -0.9263       1.0456
   11      -0.1311       -0.4261       0.2950        -1.0316       0.9006
   14      -0.1273       -0.5424       0.4151        -1.0356       0.9084
   16       5.3905       -9.8573      15.2478        -2.3082       7.6987
   17       0.4235       -0.0560       0.4795        -0.6313       1.0547
   23      -1.3036       -5.8910       4.5874        -8.9148       7.6113
   24      -1.4624       -5.8980       4.4356        -8.9056       7.4431
   25       5.2621       -1.0960       6.3582        -5.5803      10.8425
   26       0.9557       -0.3303       1.2861        -0.0905       1.0462
   27       0.6338       -0.6614       1.2952        -0.4154       1.0492
   28       0.6243       -0.2448       0.8691        -0.4051       1.0294
   29       1.0042       -0.2831       1.2873        -0.0241       1.0283
   30       0.6413       -0.5319       1.1733        -0.3634       1.0047
   31       0.6116       -0.2542       0.8658        -0.4188       1.0304
   40     199.9272       -0.0021     199.9293         0.0027     199.9245
 Sum      212.5692      -26.2926     238.8618       -31.0484     243.6176

 Contributions to Isotropic shielding for atom   10 (   221.2488 ppm):
                         Standard Origin              Atomic Origin
 NLMO      Total    Paramagnetic  Diamagnetic   Paramagnetic  Diamagnetic
   10       0.0777       -0.1733       0.2510        -1.1510       1.2287
   23       4.0639      -10.3449      14.4088        -3.7900       7.8539
   24      -0.4819       -0.0159      -0.4660        -1.1623       0.6804
   25       0.3093        0.0720       0.2373        -0.7092       1.0185
   26       6.4416       -4.8744      11.3160        -4.7531      11.1946
   27       5.9631       -5.0476      11.0106        -5.2380      11.2010
   28       4.8439        2.7687       2.0753        -6.1954      11.0393
   31      -0.1184       -0.6760       0.5575        -1.0444       0.9260
   41     200.0739       -0.0031     200.0770         0.0020     200.0720
 Sum      221.1730      -18.2945     239.4675       -24.0413     245.2144

 Contributions to Isotropic shielding for atom   11 (   224.5357 ppm):
                         Standard Origin              Atomic Origin
 NLMO      Total    Paramagnetic  Diamagnetic   Paramagnetic  Diamagnetic
   23      -0.4364        0.0421      -0.4785        -1.1092       0.6728
   24       4.5588       -9.9112      14.4700        -3.4968       8.0556
   25       0.3057        0.0263       0.2794        -0.7085       1.0142
   29       6.8716       -4.7392      11.6108        -4.2323      11.1040
   30       6.5509       -3.5976      10.1485        -4.5546      11.1055
   31       5.9754        3.7940       2.1814        -5.1300      11.1054
   42     200.0738       -0.0030     200.0767         0.0018     200.0719
 Sum      223.8998      -14.3885     238.2883       -19.2296     243.1294

 Contributions to Isotropic shielding for atom   12 (    32.4404 ppm):
                         Standard Origin              Atomic Origin
 NLMO      Total    Paramagnetic  Diamagnetic   Paramagnetic  Diamagnetic
    1       1.2015        0.5284       0.6731         0.2175       0.9840
    2      26.4300        0.0654      26.3646         0.4398      25.9902
    3       2.0671        0.7826       1.2845         0.1927       1.8744
    4       1.8776        2.2035      -0.3259         0.0356       1.8420
 Sum       31.5762        3.5799      27.9963         0.8856      30.6906

 Contributions to Isotropic shielding for atom   13 (    32.1624 ppm):
                         Standard Origin              Atomic Origin
 NLMO      Total    Paramagnetic  Diamagnetic   Paramagnetic  Diamagnetic
    1       1.6426       -1.2095       2.8520         0.7720       0.8706
    2       1.9479        1.2183       0.7295         0.1079       1.8400
    3      26.1068        0.4145      25.6922         0.3900      25.7168
    4       1.9540        0.7509       1.2031         0.1332       1.8208
   10       0.0861       -0.3044       0.3905        -1.0717       1.1578
   43      -0.3001        0.0983      -0.3984         0.7088      -1.0089
 Sum       31.4372        0.9682      30.4690         1.0401      30.3971

 Contributions to Isotropic shielding for atom   14 (    32.5747 ppm):
                         Standard Origin              Atomic Origin
 NLMO      Total    Paramagnetic  Diamagnetic   Paramagnetic  Diamagnetic
    1       1.3210        0.1525       1.1684         0.3329       0.9881
    2       1.9019        2.3595      -0.4577         0.0719       1.8300
    3       2.0985        0.4382       1.6603         0.2358       1.8627
    4      26.4387        0.1903      26.2484         0.4613      25.9775
    6      -0.1112        0.1843      -0.2955        -1.0188       0.9076
 Sum       31.6489        3.3248      28.3241         0.0831      31.5658

 Contributions to Isotropic shielding for atom   15 (    32.3570 ppm):
                         Standard Origin              Atomic Origin
 NLMO      Total    Paramagnetic  Diamagnetic   Paramagnetic  Diamagnetic
    1       0.8477        2.2955      -1.4478        -0.2144       1.0621
    2       0.2126       -0.2831       0.4957        -0.7910       1.0036
    5       1.1667        1.4724      -0.3057         0.1494       1.0172
    6       1.2779        1.1361       0.1417         0.2775       1.0004
    7      26.5731       -0.4097      26.9827         0.4970      26.0760
   19      -0.1282       -0.2811       0.1529        -1.3022       1.1740
   21       0.1476        0.1617      -0.0141        -0.8916       1.0392
 Sum       30.0973        4.0919      26.0054        -2.2753      32.3726

 Contributions to Isotropic shielding for atom   16 (    32.0226 ppm):
                         Standard Origin              Atomic Origin
 NLMO      Total    Paramagnetic  Diamagnetic   Paramagnetic  Diamagnetic
    8       1.0071        0.0595       0.9476        -0.0985       1.1056
    9       0.6726        0.6274       0.0452        -0.3899       1.0625
   10       0.6735        1.0053      -0.3318        -0.9280       1.6015
   11      26.7780        0.2990      26.4790         0.7374      26.0405
   16      -0.1834       -0.1467      -0.0367        -1.1055       0.9221
   21       0.0557       -0.6641       0.7197        -1.0685       1.1242
   26      -0.2244       -1.1279       0.9035        -0.8386       0.6142
   29      -0.3705       -1.5196       1.1491        -0.8914       0.5210
 Sum       28.4086       -1.4670      29.8756        -4.5829      32.9916

 Contributions to Isotropic shielding for atom   17 (    32.5303 ppm):
                         Standard Origin              Atomic Origin
 NLMO      Total    Paramagnetic  Diamagnetic   Paramagnetic  Diamagnetic
   12       1.3570        0.3900       0.9670         0.4674       0.8896
   13       1.0583        1.3856      -0.3274         0.0560       1.0023
   14      26.3925        0.0603      26.3322         0.4578      25.9347
   15       2.0875        1.4021       0.6854         0.3505       1.7370
   16      -0.0499        0.1415      -0.1914        -1.0284       0.9785
   18       0.0897       -0.5146       0.6043        -1.0187       1.1083
 Sum       30.9351        2.8649      28.0701        -0.7153      31.6503

 Contributions to Isotropic shielding for atom   18 (    32.7659 ppm):
                         Standard Origin              Atomic Origin
 NLMO      Total    Paramagnetic  Diamagnetic   Paramagnetic  Diamagnetic
   12       1.3573       -0.0405       1.3978         0.5058       0.8515
   13       1.1104        0.9785       0.1319         0.1719       0.9385
   14       2.0237        1.5320       0.4916         0.2540       1.7697
   15      26.4662        0.1129      26.3533         0.4037      26.0625
   19       0.0552       -0.6715       0.7267        -1.0066       1.0618
   24       0.0171       -0.6132       0.6303        -0.9964       1.0135
   30      -0.3496       -1.4800       1.1304        -0.9196       0.5701
 Sum       30.6803       -0.1817      30.8620        -1.5873      32.2676

 Contributions to Isotropic shielding for atom   19 (    32.2001 ppm):
                         Standard Origin              Atomic Origin
 NLMO      Total    Paramagnetic  Diamagnetic   Paramagnetic  Diamagnetic
    8       1.3437        0.5753       0.7684         0.4367       0.9071
   10       0.1505       -0.7805       0.9310        -1.6805       1.8309
   12       1.1483        0.7461       0.4021         0.1844       0.9639
   16       1.1081        1.1332      -0.0250        -0.0539       1.1620
   17      26.1703        0.0800      26.0902         0.3961      25.7742
   27      -0.1496       -1.3038       1.1541        -1.0291       0.8795
   43      -0.5302        0.1822      -0.7124         0.5260      -1.0562
 Sum       29.2410        0.6325      28.6085        -1.2203      30.4614

 Contributions to Isotropic shielding for atom   20 (    32.4771 ppm):
                         Standard Origin              Atomic Origin
 NLMO      Total    Paramagnetic  Diamagnetic   Paramagnetic  Diamagnetic
    1      -0.1986       -0.3498       0.1512        -1.3990       1.2003
    5       1.2146        0.7313       0.4833         0.3036       0.9111
   13       1.3403        0.2701       1.0702         0.3451       0.9953
   14       0.0073       -0.0475       0.0548        -1.0461       1.0534
   18      26.4182        0.0520      26.3662         0.4824      25.9358
   19       1.9824        2.1426      -0.1602         0.2041       1.7782
 Sum       30.7642        2.7986      27.9656        -1.1099      31.8741

 Contributions to Isotropic shielding for atom   21 (    32.1379 ppm):
                         Standard Origin              Atomic Origin
 NLMO      Total    Paramagnetic  Diamagnetic   Paramagnetic  Diamagnetic
    5       1.0348        1.1939      -0.1592        -0.0065       1.0412
    7      -0.1143       -0.4081       0.2938        -1.2256       1.1113
   13       1.1703        0.7962       0.3741         0.0735       1.0968
   15       0.0318        0.1167      -0.0849        -1.0708       1.1026
   18       1.9792        1.9045       0.0747         0.1725       1.8067
   19      26.5051       -0.1620      26.6671         0.4686      26.0365
 Sum       30.6068        3.4411      27.1656        -1.5883      32.1950

 Contributions to Isotropic shielding for atom   22 (    32.9563 ppm):
                         Standard Origin              Atomic Origin
 NLMO      Total    Paramagnetic  Diamagnetic   Paramagnetic  Diamagnetic
    4      -0.1178       -1.1380       1.0202        -0.9973       0.8795
    6       1.0446        1.3816      -0.3371         0.0791       0.9655
    9       1.3661        0.4946       0.8715         0.4744       0.8917
   10      -0.2582        0.3039      -0.5621        -1.5792       1.3210
   20      26.4674        0.1069      26.3606         0.4924      25.9750
   21       2.0699        1.5860       0.4839         0.3586       1.7113
 Sum       30.5720        2.7350      27.8370        -1.1720      31.7439

 Contributions to Isotropic shielding for atom   23 (    32.4559 ppm):
                         Standard Origin              Atomic Origin
 NLMO      Total    Paramagnetic  Diamagnetic   Paramagnetic  Diamagnetic
    6       1.1238        0.8715       0.2523         0.0715       1.0522
    9       1.4713        0.1258       1.3456         0.5477       0.9236
   11       0.0245       -0.0889       0.1133        -1.0298       1.0543
   20       1.8387        1.5782       0.2605         0.0309       1.8078
   21      26.4665        0.1145      26.3520         0.4400      26.0265
 Sum       30.9248        2.6011      28.3237         0.0604      30.8644

 Contributions to Isotropic shielding for atom   24 (    35.1306 ppm):
                         Standard Origin              Atomic Origin
 NLMO      Total    Paramagnetic  Diamagnetic   Paramagnetic  Diamagnetic
    9      -0.1941        0.2644      -0.4585        -1.2196       1.0255
   10       1.3831        2.3868      -1.0037         0.6934       0.6897
   11       0.1830        0.1784       0.0046        -0.8691       1.0521
   20      -0.1454       -0.9023       0.7570        -1.0260       0.8807
   22      23.2315       -0.4527      23.6843        -0.0121      23.2436
   43       4.0304        0.6041       3.4263         2.0875       1.9429
   44       5.5482        2.3812       3.1670         2.3837       3.1646
 Sum       34.0368        4.4598      29.5770         2.0377      31.9991

 Contributions to Isotropic shielding for atom   25 (    32.4029 ppm):
                         Standard Origin              Atomic Origin
 NLMO      Total    Paramagnetic  Diamagnetic   Paramagnetic  Diamagnetic
   16       1.6605        0.0202       1.6403         0.6130       1.0475
   23       0.9188        1.8231      -0.9043        -0.1132       1.0319
   24       0.8693        1.7891      -0.9198        -0.1597       1.0291
   25      26.5407       -0.1237      26.6644         0.4368      26.1039
 Sum       29.9893        3.5087      26.4806         0.7769      29.2124

 Contributions to Isotropic shielding for atom   26 (    32.3218 ppm):
                         Standard Origin              Atomic Origin
 NLMO      Total    Paramagnetic  Diamagnetic   Paramagnetic  Diamagnetic
    8      -0.0945        0.1027      -0.1972        -1.1111       1.0166
   10       0.0319       -0.0593       0.0913        -1.2597       1.2916
   23       1.4983       -0.8065       2.3048         0.5937       0.9047
   24      -0.1314        0.1768      -0.3082        -1.0272       0.8958
   26      26.2453        0.2975      25.9477         0.3991      25.8462
   27       2.0667        0.4964       1.5702         0.2414       1.8253
   28       1.8867        2.0178      -0.1311         0.0489       1.8379
 Sum       31.5031        2.2255      29.2776        -2.1149      33.6180

 Contributions to Isotropic shielding for atom   27 (    32.1829 ppm):
                         Standard Origin              Atomic Origin
 NLMO      Total    Paramagnetic  Diamagnetic   Paramagnetic  Diamagnetic
   10       0.1110       -0.2403       0.3513        -0.9709       1.0819
   23       1.5418       -0.7332       2.2750         0.5460       0.9958
   26       2.0827        0.4981       1.5846         0.2424       1.8403
   27      26.2022        0.3082      25.8940         0.4098      25.7924
   28       1.8851        2.0594      -0.1743         0.0501       1.8350
 Sum       31.8228        1.8922      29.9306         0.2774      31.5454

 Contributions to Isotropic shielding for atom   28 (    32.4679 ppm):
                         Standard Origin              Atomic Origin
 NLMO      Total    Paramagnetic  Diamagnetic   Paramagnetic  Diamagnetic
   23       1.1552        0.6694       0.4858         0.1609       0.9943
   24      -0.1612        0.6276      -0.7888        -1.0965       0.9353
   26       1.9802        1.6627       0.3175         0.1130       1.8672
   27       1.9963        1.7228       0.2735         0.1346       1.8617
   28      26.4520        0.0053      26.4467         0.4472      26.0048
 Sum       31.4225        4.6878      26.7347        -0.2408      31.6633

 Contributions to Isotropic shielding for atom   29 (    32.8018 ppm):
                         Standard Origin              Atomic Origin
 NLMO      Total    Paramagnetic  Diamagnetic   Paramagnetic  Diamagnetic
    8      -0.0925        0.0949      -0.1873        -1.0519       0.9594
   24       1.5493       -0.8594       2.4088         0.6063       0.9430
   29      26.3587        0.2825      26.0762         0.3763      25.9824
   30       2.0982        0.6372       1.4610         0.2819       1.8163
   31       1.9602        2.0147      -0.0545         0.1151       1.8451
 Sum       31.8739        2.1698      29.7041         0.3277      31.5462

 Contributions to Isotropic shielding for atom   30 (    32.6290 ppm):
                         Standard Origin              Atomic Origin
 NLMO      Total    Paramagnetic  Diamagnetic   Paramagnetic  Diamagnetic
   12      -0.0749        0.1382      -0.2131        -1.0444       0.9695
   24       1.4963       -0.6474       2.1437         0.4695       1.0268
   29       2.0875        0.5396       1.5479         0.2509       1.8367
   30      26.3266        0.2157      26.1109         0.3810      25.9456
   31       1.9404        2.1780      -0.2376         0.0654       1.8750
 Sum       31.7758        2.4240      29.3518         0.1225      31.6534

 Contributions to Isotropic shielding for atom   31 (    32.5789 ppm):
                         Standard Origin              Atomic Origin
 NLMO      Total    Paramagnetic  Diamagnetic   Paramagnetic  Diamagnetic
   23      -0.1781        0.6480      -0.8262        -1.1649       0.9868
   24       1.2309        0.7083       0.5226         0.1895       1.0414
   29       2.0021        1.5964       0.4057         0.1392       1.8629
   30       2.0129        1.8864       0.1265         0.1454       1.8675
   31      26.2990       -0.0474      26.3464         0.3979      25.9011
 Sum       31.3668        4.7917      26.5751        -0.2929      31.6597
 
 1\1\GINC-COMPUTE-10-6\SP\RHF\STO-3G\C10H20O1\YTSAI.IQUIR\03-Aug-2021\0
 \\# rhf/STO-3G nmr pop=nbo\\comment\\0,1\C,0,0.74980869,-0.661082333,-
 2.892370299\C,0,-0.599137814,-0.73909466,-2.171506719\C,0,0.263056928,
 -1.004953168,0.241340521\C,0,-1.1420578,1.013545048,-0.362575956\C,0,0
 .145810954,0.534939857,0.32231581\C,0,-1.147072569,0.664093423,-1.8534
 92146\C,0,-0.531038971,-1.62374803,-0.918895729\O,0,1.644316078,-1.345
 092368,0.103472768\C,0,0.284512726,1.112289408,1.762740574\C,0,1.62280
 1833,0.738828589,2.407747263\C,0,-0.864581532,0.740859511,2.705492344\
 H,0,0.641768237,-0.138494963,-3.849158546\H,0,1.501503489,-0.124588108
 ,-2.30644219\H,0,1.135466133,-1.663666232,-3.105171591\H,0,-1.29437422
 9,-1.216710241,-2.875095946\H,0,-0.078155038,-1.475034556,1.168794032\
 H,0,-1.258632322,2.098247048,-0.252190556\H,0,-2.017847448,0.553895578
 ,0.111621171\H,0,0.985580323,0.966878899,-0.242338978\H,0,-0.584664972
 ,1.42749158,-2.405572178\H,0,-2.180410199,0.737855756,-2.21577187\H,0,
 -0.122674075,-2.606996053,-1.182648549\H,0,-1.560398922,-1.796266347,-
 0.576918839\H,0,1.710553387,-2.315129658,0.108647699\H,0,0.27589939,2.
 207266957,1.669216782\H,0,1.67987155,-0.330113948,2.636330965\H,0,2.45
 9526279,0.997230714,1.75049574\H,0,1.760847746,1.28426494,3.347819955\
 H,0,-0.934883228,-0.339022359,2.863853462\H,0,-1.826627494,1.094901774
 ,2.323924923\H,0,-0.718767128,1.207403944,3.686336078\\Version=EM64L-G
 09RevC.01\State=1-A\HF=-459.610991\RMSD=6.645e-09\Dipole=-0.4238974,-0
 .2856453,0.0114835\Quadrupole=-2.2992715,2.9868175,-0.687546,-0.145357
 1,0.0216853,-0.2250257\PG=C01 [X(C10H20O1)]\\@


 WE LEARN WISDOM FROM FAILURE MUCH MORE THAN FROM SUCCESS.
 WE DISCOVER WHAT WILL DO BY FINDING OUT WHAT WILL NOT DO...
 AND HE WHO NEVER MADE A MISTAKE NEVER MADE A DISCOVERY
 Job cpu time:  0 days  0 hours  0 minutes 31.4 seconds.
 File lengths (MBytes):  RWF=      5 Int=      0 D2E=      0 Chk=      1 Scr=      1
 Normal termination of Gaussian 09 at Tue Aug  3 16:33:51 2021.
