 Entering Gaussian System, Link 0=g09
 Input=/home/ytsai.iquir/menthol/02_menthol_M0025_MMFF_NMR_rhf_STO-3G_nbo.gjc
 Output=/home/ytsai.iquir/menthol/02_menthol_M0025_MMFF_NMR_rhf_STO-3G_nbo.log
 Initial command:
 /share/apps/Gaussian09/EM64T.SSE4.2-enabled/g09/l1.exe /tmp/Gau-30230.inp -scrdir=/tmp/
 Entering Link 1 = /share/apps/Gaussian09/EM64T.SSE4.2-enabled/g09/l1.exe PID=     30231.
  
 Copyright (c) 1988,1990,1992,1993,1995,1998,2003,2009,2011,
            Gaussian, Inc.  All Rights Reserved.
  
 This is part of the Gaussian(R) 09 program.  It is based on
 the Gaussian(R) 03 system (copyright 2003, Gaussian, Inc.),
 the Gaussian(R) 98 system (copyright 1998, Gaussian, Inc.),
 the Gaussian(R) 94 system (copyright 1995, Gaussian, Inc.),
 the Gaussian 92(TM) system (copyright 1992, Gaussian, Inc.),
 the Gaussian 90(TM) system (copyright 1990, Gaussian, Inc.),
 the Gaussian 88(TM) system (copyright 1988, Gaussian, Inc.),
 the Gaussian 86(TM) system (copyright 1986, Carnegie Mellon
 University), and the Gaussian 82(TM) system (copyright 1983,
 Carnegie Mellon University). Gaussian is a federally registered
 trademark of Gaussian, Inc.
  
 This software contains proprietary and confidential information,
 including trade secrets, belonging to Gaussian, Inc.
  
 This software is provided under written license and may be
 used, copied, transmitted, or stored only in accord with that
 written license.
  
 The following legend is applicable only to US Government
 contracts under FAR:
  
                    RESTRICTED RIGHTS LEGEND
  
 Use, reproduction and disclosure by the US Government is
 subject to restrictions as set forth in subparagraphs (a)
 and (c) of the Commercial Computer Software - Restricted
 Rights clause in FAR 52.227-19.
  
 Gaussian, Inc.
 340 Quinnipiac St., Bldg. 40, Wallingford CT 06492
  
  
 ---------------------------------------------------------------
 Warning -- This program may not be used in any manner that
 competes with the business of Gaussian, Inc. or will provide
 assistance to any competitor of Gaussian, Inc.  The licensee
 of this program is prohibited from giving any competitor of
 Gaussian, Inc. access to this program.  By using this program,
 the user acknowledges that Gaussian, Inc. is engaged in the
 business of creating and licensing software in the field of
 computational chemistry and represents and warrants to the
 licensee that it is not a competitor of Gaussian, Inc. and that
 it will not use this program in any manner prohibited above.
 ---------------------------------------------------------------
  

 Cite this work as:
 Gaussian 09, Revision C.01,
 M. J. Frisch, G. W. Trucks, H. B. Schlegel, G. E. Scuseria, 
 M. A. Robb, J. R. Cheeseman, G. Scalmani, V. Barone, B. Mennucci, 
 G. A. Petersson, H. Nakatsuji, M. Caricato, X. Li, H. P. Hratchian, 
 A. F. Izmaylov, J. Bloino, G. Zheng, J. L. Sonnenberg, M. Hada, 
 M. Ehara, K. Toyota, R. Fukuda, J. Hasegawa, M. Ishida, T. Nakajima, 
 Y. Honda, O. Kitao, H. Nakai, T. Vreven, J. A. Montgomery, Jr., 
 J. E. Peralta, F. Ogliaro, M. Bearpark, J. J. Heyd, E. Brothers, 
 K. N. Kudin, V. N. Staroverov, T. Keith, R. Kobayashi, J. Normand, 
 K. Raghavachari, A. Rendell, J. C. Burant, S. S. Iyengar, J. Tomasi, 
 M. Cossi, N. Rega, J. M. Millam, M. Klene, J. E. Knox, J. B. Cross, 
 V. Bakken, C. Adamo, J. Jaramillo, R. Gomperts, R. E. Stratmann, 
 O. Yazyev, A. J. Austin, R. Cammi, C. Pomelli, J. W. Ochterski, 
 R. L. Martin, K. Morokuma, V. G. Zakrzewski, G. A. Voth, 
 P. Salvador, J. J. Dannenberg, S. Dapprich, A. D. Daniels, 
 O. Farkas, J. B. Foresman, J. V. Ortiz, J. Cioslowski, 
 and D. J. Fox, Gaussian, Inc., Wallingford CT, 2010.
 
 ******************************************
 Gaussian 09:  EM64L-G09RevC.01 23-Sep-2011
                 3-Aug-2021 
 ******************************************
 %nprocshared=4
 Will use up to    4 processors via shared memory.
 ------------------------
 # rhf/STO-3G nmr pop=nbo
 ------------------------
 1/38=1/1;
 2/12=2,17=6,18=5,40=1/2;
 3/6=3,11=1,16=1,25=1,30=1,116=1/1,2,8,3;
 4//1;
 5/5=2,38=5/2;
 8/6=1,10=90,11=11/1;
 10/13=100,45=16/2;
 6/7=2,8=2,9=2,10=2,28=1,64=1/1,7;
 99/9=1/99;
 -------
 comment
 -------
 Charge =  0 Multiplicity = 1
 Symbolic Z-Matrix:
 6                     2.24394   0.8712   -1.92499 
 6                     0.74668   0.70856  -2.19962 
 6                     0.11632  -1.25741  -0.64268 
 6                    -0.19644   1.14326   0.13469 
 6                    -0.74301  -0.29377   0.2076 
 6                    -0.0959    1.63125  -1.31068 
 6                     0.27698  -0.75145  -2.08193 
 8                     1.40644  -1.46061  -0.08318 
 6                    -0.96523  -0.79868   1.66503 
 6                    -2.30609  -0.28587   2.21053 
 6                     0.13903  -0.42889   2.66128 
 1                     2.82984   0.20342  -2.56533 
 1                     2.56041   1.89741  -2.14188 
 1                     2.50855   0.66142  -0.88562 
 1                     0.59082   1.01828  -3.24186 
 1                    -0.37207  -2.23902  -0.68524 
 1                     0.79073   1.20785   0.60522 
 1                    -0.85494   1.8236    0.68672 
 1                    -1.7301   -0.28236  -0.27871 
 1                     0.31129   2.64925  -1.32686 
 1                    -1.10851   1.69684  -1.72967 
 1                     0.97115  -1.40136  -2.62896 
 1                    -0.69656  -0.83466  -2.58298 
 1                     1.31109  -2.09126   0.65021 
 1                    -1.0365   -1.89403   1.63661 
 1                    -2.32149   0.80633   2.2833 
 1                    -3.1344   -0.59591   1.56464 
 1                    -2.49873  -0.69219   3.20946 
 1                     0.16993   0.64956   2.84928 
 1                     1.12829  -0.74134   2.32103 
 1                    -0.04154  -0.91943   3.62457 
 
                          Input orientation:                          
 ---------------------------------------------------------------------
 Center     Atomic      Atomic             Coordinates (Angstroms)
 Number     Number       Type             X           Y           Z
 ---------------------------------------------------------------------
      1          6           0        2.243944    0.871199   -1.924989
      2          6           0        0.746680    0.708560   -2.199616
      3          6           0        0.116318   -1.257414   -0.642681
      4          6           0       -0.196443    1.143262    0.134685
      5          6           0       -0.743006   -0.293771    0.207604
      6          6           0       -0.095902    1.631253   -1.310683
      7          6           0        0.276982   -0.751446   -2.081934
      8          8           0        1.406442   -1.460609   -0.083176
      9          6           0       -0.965228   -0.798683    1.665030
     10          6           0       -2.306087   -0.285867    2.210526
     11          6           0        0.139032   -0.428890    2.661285
     12          1           0        2.829836    0.203423   -2.565333
     13          1           0        2.560414    1.897412   -2.141883
     14          1           0        2.508548    0.661422   -0.885622
     15          1           0        0.590823    1.018278   -3.241858
     16          1           0       -0.372067   -2.239016   -0.685243
     17          1           0        0.790734    1.207849    0.605216
     18          1           0       -0.854943    1.823603    0.686724
     19          1           0       -1.730098   -0.282364   -0.278709
     20          1           0        0.311293    2.649252   -1.326864
     21          1           0       -1.108514    1.696840   -1.729669
     22          1           0        0.971147   -1.401357   -2.628955
     23          1           0       -0.696560   -0.834664   -2.582980
     24          1           0        1.311092   -2.091257    0.650212
     25          1           0       -1.036499   -1.894030    1.636612
     26          1           0       -2.321492    0.806332    2.283300
     27          1           0       -3.134395   -0.595909    1.564644
     28          1           0       -2.498731   -0.692188    3.209464
     29          1           0        0.169929    0.649557    2.849283
     30          1           0        1.128288   -0.741344    2.321034
     31          1           0       -0.041537   -0.919433    3.624574
 ---------------------------------------------------------------------
                    Distance matrix (angstroms):
                    1          2          3          4          5
     1  C    0.000000
     2  C    1.530905   0.000000
     3  C    3.271405   2.585818   0.000000
     4  C    3.204959   2.554879   2.542708   0.000000
     5  C    3.850581   3.003088   1.545972   1.539193   0.000000
     6  C    2.535732   1.533463   2.972484   1.528834   2.535677
     7  C    2.554710   1.538208   1.534035   2.954226   2.547906
     8  O    3.087233   3.101596   1.420828   3.065428   2.462964
     9  C    5.096619   4.487527   2.589538   2.589235   1.558335
    10  C    6.256521   5.455054   3.866877   3.286658   2.540666
    11  C    5.211026   5.029054   3.406341   2.994647   2.610900
    12  H    1.095095   2.174500   3.632329   4.163143   4.549899
    13  H    1.095587   2.169409   4.263113   3.654007   4.608032
    14  H    1.092843   2.198404   3.076315   2.930900   3.560918
    15  H    2.118627   1.098401   3.487069   3.469359   3.924202
    16  H    4.248990   3.497588   1.097213   3.484671   2.172268
    17  H    2.937190   2.849265   2.844223   1.095486   2.182961
    18  H    4.163078   3.484174   3.493326   1.096007   2.173789
    19  H    4.453532   3.287285   2.119540   2.134339   1.100446
    20  H    2.693393   2.171991   3.970914   2.159150   3.482460
    21  H    3.458151   2.153902   3.377776   2.148055   2.801635
    22  H    2.698164   2.164825   2.167196   3.933963   3.494443
    23  H    3.462583   2.147429   2.145751   3.398237   2.842900
    24  H    4.034602   4.034731   1.947909   3.605627   2.765172
    25  H    5.576091   4.966875   2.632384   3.490934   2.165417
    26  H    6.209437   5.433210   4.331666   3.040707   2.830258
    27  H    6.576966   5.561838   3.984597   3.701495   2.766151
    28  H    7.162384   6.461650   4.690094   4.257190   3.500353
    29  H    5.210022   5.082076   3.979098   2.783345   2.949879
    30  H    4.676932   4.762785   3.173959   3.175968   2.858085
    31  H    6.263181   6.098593   4.283529   4.056850   3.543896
                    6          7          8          9         10
     6  C    0.000000
     7  C    2.532020   0.000000
     8  O    3.650127   2.402837   0.000000
     9  C    3.938932   3.947791   3.019800   0.000000
    10  C    4.578119   5.031324   4.519288   1.535724   0.000000
    11  C    4.480615   4.756174   3.194189   1.532534   2.490430
    12  H    3.488952   2.768124   3.310008   5.770849   7.030358
    13  H    2.796025   3.497728   4.104416   5.847364   6.884258
    14  H    2.811479   2.899524   2.522215   4.550258   5.802085
    15  H    2.139338   2.139122   4.097241   5.458955   6.310417
    16  H    3.930194   2.141232   2.032609   2.819606   3.992581
    17  H    2.153152   3.365048   2.823765   2.869283   3.794537
    18  H    2.145408   3.946846   4.061115   2.801005   2.979539
    19  H    2.719834   2.738618   3.356245   2.151681   2.555008
    20  H    1.096536   3.483684   4.431374   4.740168   5.289493
    21  H    1.097831   2.835101   4.359522   4.215702   4.570606
    22  H    3.474645   1.097033   2.583406   4.748797   5.950224
    23  H    2.839063   1.098070   3.326176   4.256649   5.086202
    24  H    4.436420   3.213891   0.971940   2.807532   4.333359
    25  H    4.690298   4.105887   3.018855   1.098031   2.127773
    26  H    4.307024   5.313568   4.963540   2.190384   1.094729
    27  H    4.739219   4.995920   4.907364   2.180936   1.095164
    28  H    5.621716   5.975532   5.165494   2.179047   1.095484
    29  H    4.282488   5.127491   3.818518   2.188250   2.722808
    30  H    4.507464   4.484523   2.524864   2.194639   3.466208
    31  H    5.555693   5.717859   4.017080   2.169701   2.743925
                   11         12         13         14         15
    11  C    0.000000
    12  H    5.912511   0.000000
    13  H    5.860478   1.766775   0.000000
    14  H    4.402719   1.770429   1.763109   0.000000
    15  H    6.094711   2.476863   2.421179   3.058899   0.000000
    16  H    3.838884   4.444371   5.275536   4.092754   4.251282
    17  H    2.707592   3.901177   3.339733   2.339244   3.856926
    18  H    3.156042   5.174790   4.435215   3.890502   4.262926
    19  H    3.486930   5.124220   5.160556   4.384654   3.982285
    20  H    5.040830   3.722760   2.507602   2.995679   2.530892
    21  H    5.035432   4.294092   3.697457   3.855859   2.373796
    22  H    5.442862   2.456438   3.693898   3.107711   2.524862
    23  H    5.325897   3.676058   4.273955   3.923266   2.350504
    24  H    2.860351   4.232241   5.026538   3.371932   5.033508
    25  H    2.139735   6.083107   6.449019   5.045727   5.910092
    26  H    2.778996   7.099924   6.678751   5.778611   6.249310
    27  H    3.456275   7.298472   7.237807   6.279132   6.291686
    28  H    2.706957   7.908477   7.806272   6.608693   7.354630
    29  H    1.095146   6.049149   5.673033   4.406676   6.116788
    30  H    1.091800   5.259699   5.378815   3.762381   5.859258
    31  H    1.095976   6.915240   6.925085   5.417001   7.162576
                   16         17         18         19         20
    16  H    0.000000
    17  H    3.859828   0.000000
    18  H    4.315128   1.758991   0.000000
    19  H    2.416196   3.058865   2.476500   0.000000
    20  H    4.977331   2.457731   2.469077   3.722940   0.000000
    21  H    4.138133   3.049253   2.432965   2.531580   1.756472
    22  H    2.506774   4.159371   4.972796   3.751337   4.305611
    23  H    2.383045   4.067985   4.216922   2.585130   3.838134
    24  H    2.153671   3.340195   4.474279   3.658391   5.232672
    25  H    2.439568   3.744892   3.841360   2.597499   5.589289
    26  H    4.678317   3.558530   2.394715   2.845857   4.833342
    27  H    3.923295   4.425008   3.438123   2.338443   5.546590
    28  H    4.699374   4.605739   3.923705   3.595289   6.296009
    29  H    4.596791   2.394353   2.665597   3.776627   4.632383
    30  H    3.678558   2.618651   3.630858   3.890977   5.046859
    31  H    4.519411   3.786097   4.100834   4.300316   6.113653
                   21         22         23         24         25
    21  H    0.000000
    22  H    3.838298   0.000000
    23  H    2.703028   1.761960   0.000000
    24  H    5.086060   3.368154   4.007895   0.000000
    25  H    4.922538   4.740088   4.363802   2.554030   0.000000
    26  H    4.285819   6.312338   5.386460   4.925309   3.059635
    27  H    4.495931   5.923724   4.816932   4.778557   2.468089
    28  H    5.659964   6.828624   6.067992   4.798116   2.460977
    29  H    4.868061   5.904176   5.697648   3.694622   3.065269
    30  H    5.230318   4.996270   5.233368   2.155767   2.546257
    31  H    6.054027   6.353300   6.242593   3.471255   2.427300
                   26         27         28         29         30
    26  H    0.000000
    27  H    1.773009   0.000000
    28  H    1.770524   1.766004   0.000000
    29  H    2.559705   3.757664   3.008613   0.000000
    30  H    3.781231   4.331714   3.734566   1.769775   0.000000
    31  H    3.158398   3.730115   2.502351   1.762817   1.760518
                   31
    31  H    0.000000
 Stoichiometry    C10H20O
 Framework group  C1[X(C10H20O)]
 Deg. of freedom    87
 Full point group                 C1      NOp   1
 Largest Abelian subgroup         C1      NOp   1
 Largest concise Abelian subgroup C1      NOp   1
                         Standard orientation:                         
 ---------------------------------------------------------------------
 Center     Atomic      Atomic             Coordinates (Angstroms)
 Number     Number       Type             X           Y           Z
 ---------------------------------------------------------------------
      1          6           0       -2.818585    0.186784    1.039223
      2          6           0       -2.294331   -0.529425   -0.208123
      3          6           0       -0.266327    0.933704   -0.866082
      4          6           0        0.061569   -1.138604    0.570366
      5          6           0        0.678838   -0.238121   -0.514633
      6          6           0       -1.316098   -1.653711    0.153194
      7          6           0       -1.671541    0.437306   -1.229714
      8          8           0       -0.373814    1.872445    0.195033
      9          6           0        2.129121    0.225789   -0.183157
     10          6           0        3.139191   -0.870801   -0.551528
     11          6           0        2.367594    0.637819    1.273559
     12          1           0       -3.512426    0.987715    0.762948
     13          1           0       -3.363926   -0.515570    1.679231
     14          1           0       -2.019599    0.624609    1.642744
     15          1           0       -3.168634   -0.990904   -0.686784
     16          1           0        0.132402    1.475248   -1.733043
     17          1           0       -0.029065   -0.597877    1.518780
     18          1           0        0.712867   -1.999813    0.758412
     19          1           0        0.740634   -0.843609   -1.431446
     20          1           0       -1.732867   -2.276599    0.953635
     21          1           0       -1.195584   -2.310370   -0.718304
     22          1           0       -2.341993    1.293385   -1.374982
     23          1           0       -1.609720   -0.084009   -2.194166
     24          1           0        0.424124    2.427086    0.176721
     25          1           0        2.360869    1.091568   -0.817500
     26          1           0        2.987814   -1.776334    0.044734
     27          1           0        3.053238   -1.141173   -1.609307
     28          1           0        4.164944   -0.524962   -0.383271
     29          1           0        2.294653   -0.217767    1.953264
     30          1           0        1.662017    1.399363    1.611551
     31          1           0        3.374179    1.056005    1.387885
 ---------------------------------------------------------------------
 Rotational constants (GHZ):      1.8031305      0.7419874      0.6757887
 Standard basis: STO-3G (5D, 7F)
 There are    75 symmetry adapted basis functions of A   symmetry.
 Integral buffers will be    131072 words long.
 Raffenetti 1 integral format.
 Two-electron integral symmetry is turned on.
    75 basis functions,   225 primitive gaussians,    75 cartesian basis functions
    44 alpha electrons       44 beta electrons
       nuclear repulsion energy       702.7910429970 Hartrees.
 NAtoms=   31 NActive=   31 NUniq=   31 SFac= 1.00D+00 NAtFMM=   60 NAOKFM=F Big=F
 One-electron integrals computed using PRISM.
 NBasis=    75 RedAO= T  NBF=    75
 NBsUse=    75 1.00D-06 NBFU=    75
 Harris functional with IExCor=  205 diagonalized for initial guess.
 ExpMin= 1.69D-01 ExpMax= 1.31D+02 ExpMxC= 1.31D+02 IAcc=1 IRadAn=         1 AccDes= 0.00D+00
 HarFok:  IExCor=  205 AccDes= 0.00D+00 IRadAn=         1 IDoV= 1
 ScaDFX=  1.000000  1.000000  1.000000  1.000000
 FoFCou: FMM=F IPFlag=           0 FMFlag=      100000 FMFlg1=           0
         NFxFlg=           0 DoJE=T BraDBF=F KetDBF=T FulRan=T
         Omega=  0.000000  0.000000  1.000000  0.000000  0.000000 ICntrl=     500 IOpCl=  0
         NMat0=    1 NMatS0=    1 NMatT0=    0 NMatD0=    1 NMtDS0=    0 NMtDT0=    0
         I1Cent=           4 NGrid=           0.
 Petite list used in FoFCou.
 Initial guess orbital symmetries:
       Occupied  (A) (A) (A) (A) (A) (A) (A) (A) (A) (A) (A) (A)
                 (A) (A) (A) (A) (A) (A) (A) (A) (A) (A) (A) (A)
                 (A) (A) (A) (A) (A) (A) (A) (A) (A) (A) (A) (A)
                 (A) (A) (A) (A) (A) (A) (A) (A)
       Virtual   (A) (A) (A) (A) (A) (A) (A) (A) (A) (A) (A) (A)
                 (A) (A) (A) (A) (A) (A) (A) (A) (A) (A) (A) (A)
                 (A) (A) (A) (A) (A) (A) (A)
 The electronic state of the initial guess is 1-A.
 Requested convergence on RMS density matrix=1.00D-08 within 128 cycles.
 Requested convergence on MAX density matrix=1.00D-06.
 Requested convergence on             energy=1.00D-06.
 No special actions if energy rises.
 Keep R1 ints in memory in canonical form, NReq=4898789.
 SCF Done:  E(RHF) =  -459.617297174     A.U. after   10 cycles
             Convg  =    0.7230D-08             -V/T =  2.0090
 Range of M.O.s used for correlation:     1    75
 NBasis=    75 NAE=    44 NBE=    44 NFC=     0 NFV=     0
 NROrb=     75 NOA=    44 NOB=    44 NVA=    31 NVB=    31
          Differentiating once with respect to magnetic field using GIAOs.
          Electric field/nuclear overlap derivatives assumed to be zero.
          Keep R3 ints in memory in canonical form, NReq=4863575.
 FoFCou: FMM=F IPFlag=           0 FMFlag=           0 FMFlg1=           0
         NFxFlg=           0 DoJE=F BraDBF=F KetDBF=T FulRan=T
         Omega=  0.000000  0.000000  1.000000  0.000000  0.000000 ICntrl=    6100 IOpCl=  0
         NMat0=    1 NMatS0=    1 NMatT0=    0 NMatD0=    1 NMtDS0=    0 NMtDT0=    0
         I1Cent=           7 NGrid=          31.
 Symmetry not used in FoFCou.
          There are     3 degrees of freedom in the 1st order CPHF.  IDoFFX=0.
      3 vectors produced by pass  0 Test12= 4.55D-14 3.33D-08 XBig12= 6.82D+00 3.88D-01.
 AX will form     3 AO Fock derivatives at one time.
      3 vectors produced by pass  1 Test12= 4.55D-14 3.33D-08 XBig12= 1.02D-02 1.38D-02.
      3 vectors produced by pass  2 Test12= 4.55D-14 3.33D-08 XBig12= 8.62D-05 1.77D-03.
      3 vectors produced by pass  3 Test12= 4.55D-14 3.33D-08 XBig12= 1.72D-06 3.52D-04.
      3 vectors produced by pass  4 Test12= 4.55D-14 3.33D-08 XBig12= 1.80D-08 4.16D-05.
      3 vectors produced by pass  5 Test12= 4.55D-14 3.33D-08 XBig12= 2.42D-10 3.37D-06.
      3 vectors produced by pass  6 Test12= 4.55D-14 3.33D-08 XBig12= 2.69D-12 2.55D-07.
 Inverted reduced A of dimension    21 with in-core refinement.
 Calculating GIAO nuclear magnetic shielding tensors.
 SCF GIAO Magnetic shielding tensor (ppm):
      1  C    Isotropic =   222.1174   Anisotropy =    24.9527
   XX=   217.2622   YX=    -5.1164   ZX=    -9.9209
   XY=    -7.6464   YY=   220.4335   ZY=     4.7349
   XZ=   -13.3534   YZ=     4.1428   ZZ=   228.6565
   Eigenvalues:   209.0159   218.5838   238.7525
      2  C    Isotropic =   216.3560   Anisotropy =     3.7825
   XX=   215.6340   YX=    -1.6654   ZX=    -3.3135
   XY=    -0.8243   YY=   216.7530   ZY=    -1.4051
   XZ=    -2.0181   YZ=    -0.8360   ZZ=   216.6810
   Eigenvalues:   212.7425   217.4479   218.8777
      3  C    Isotropic =   186.9413   Anisotropy =    31.3695
   XX=   181.4039   YX=    -2.2085   ZX=     3.6821
   XY=    -6.5500   YY=   186.5277   ZY=    18.3717
   XZ=    -0.0520   YZ=    17.1964   ZZ=   192.8923
   Eigenvalues:   169.8625   183.1071   207.8543
      4  C    Isotropic =   221.3214   Anisotropy =    13.7231
   XX=   226.3120   YX=     5.9643   ZX=     0.3562
   XY=     6.1808   YY=   219.6948   ZY=    -5.7779
   XZ=    -0.5767   YZ=    -3.6683   ZZ=   217.9573
   Eigenvalues:   212.7651   220.7289   230.4701
      5  C    Isotropic =   209.4788   Anisotropy =    16.6599
   XX=   219.5086   YX=    -0.3709   ZX=     2.0018
   XY=     6.0202   YY=   205.6743   ZY=     1.8827
   XZ=     3.2851   YZ=     2.2830   ZZ=   203.2533
   Eigenvalues:   202.0014   205.8495   220.5853
      6  C    Isotropic =   216.6471   Anisotropy =    11.1391
   XX=   222.5839   YX=    -2.9475   ZX=     0.0166
   XY=    -2.6351   YY=   218.1820   ZY=     0.2832
   XZ=     1.7407   YZ=    -3.1476   ZZ=   209.1753
   Eigenvalues:   208.9379   216.9302   224.0732
      7  C    Isotropic =   215.4017   Anisotropy =    10.7569
   XX=   219.8369   YX=     3.6587   ZX=    -0.8136
   XY=     3.9207   YY=   213.2236   ZY=    -4.9230
   XZ=    -1.0493   YZ=    -4.7214   ZZ=   213.1445
   Eigenvalues:   207.9863   215.6457   222.5730
      8  O    Isotropic =   367.7837   Anisotropy =    85.1632
   XX=   400.7350   YX=    47.6068   ZX=    15.9364
   XY=    31.6602   YY=   358.5307   ZY=   -12.7603
   XZ=    -8.0843   YZ=    -5.8026   ZZ=   344.0853
   Eigenvalues:   328.3826   350.4092   424.5591
      9  C    Isotropic =   213.1317   Anisotropy =    16.8242
   XX=   223.7859   YX=     2.5191   ZX=     0.2428
   XY=     3.0059   YY=   206.9689   ZY=     1.1630
   XZ=     1.9966   YZ=     2.1372   ZZ=   208.6402
   Eigenvalues:   205.7660   209.2812   224.3478
     10  C    Isotropic =   220.1593   Anisotropy =    28.5517
   XX=   226.2699   YX=   -11.2875   ZX=    -5.5552
   XY=   -14.4419   YY=   219.4428   ZY=    10.5669
   XZ=    -0.5433   YZ=     9.0269   ZZ=   214.7653
   Eigenvalues:   204.9396   216.3446   239.1938
     11  C    Isotropic =   222.8455   Anisotropy =    21.5833
   XX=   218.6076   YX=     0.8774   ZX=     5.1232
   XY=     0.4979   YY=   216.9064   ZY=     6.9256
   XZ=     2.7392   YZ=     9.3576   ZZ=   233.0224
   Eigenvalues:   213.3417   217.9603   237.2344
     12  H    Isotropic =    32.4458   Anisotropy =    13.8461
   XX=    35.4406   YX=    -6.8741   ZX=    -1.6504
   XY=    -7.1968   YY=    33.4747   ZY=    -0.3316
   XZ=    -1.7761   YZ=     0.1416   ZZ=    28.4220
   Eigenvalues:    26.5473    29.1135    41.6765
     13  H    Isotropic =    32.6054   Anisotropy =    14.6978
   XX=    33.3365   YX=     2.6432   ZX=    -6.9566
   XY=     2.8158   YY=    30.4111   ZY=    -3.2269
   XZ=    -7.1985   YZ=    -3.7196   ZZ=    34.0687
   Eigenvalues:    26.5477    28.8646    42.4040
     14  H    Isotropic =    32.0410   Anisotropy =     7.3929
   XX=    33.6027   YX=     2.0229   ZX=     0.5046
   XY=     2.1138   YY=    28.8745   ZY=     4.4854
   XZ=     0.4147   YZ=     4.3850   ZZ=    33.6456
   Eigenvalues:    25.9076    33.2457    36.9695
     15  H    Isotropic =    32.4042   Anisotropy =    15.4741
   XX=    38.0496   YX=     5.0922   ZX=     4.5747
   XY=     5.2552   YY=    29.4369   ZY=     2.7278
   XZ=     4.7907   YZ=     2.7322   ZZ=    29.7262
   Eigenvalues:    26.7401    27.7523    42.7202
     16  H    Isotropic =    32.0123   Anisotropy =    10.8637
   XX=    30.4357   YX=     1.6024   ZX=    -1.9946
   XY=     1.8371   YY=    30.4853   ZY=    -4.6390
   XZ=    -1.6116   YZ=    -5.9358   ZZ=    35.1159
   Eigenvalues:    26.9593    29.8229    39.2548
     17  H    Isotropic =    32.4316   Anisotropy =     8.1324
   XX=    31.9835   YX=     1.5782   ZX=     0.2086
   XY=     1.6152   YY=    28.0743   ZY=     2.5119
   XZ=     0.1723   YZ=     2.1596   ZZ=    37.2370
   Eigenvalues:    27.0495    32.3920    37.8532
     18  H    Isotropic =    32.6364   Anisotropy =    12.6994
   XX=    35.1268   YX=    -3.7861   ZX=     1.7888
   XY=    -3.7937   YY=    36.4375   ZY=    -4.7616
   XZ=     1.6080   YZ=    -4.4479   ZZ=    26.3448
   Eigenvalues:    24.5548    32.2517    41.1026
     19  H    Isotropic =    32.8990   Anisotropy =     9.7326
   XX=    33.4040   YX=    -1.0982   ZX=    -0.9634
   XY=    -1.1171   YY=    29.8304   ZY=     5.5885
   XZ=    -1.2603   YZ=     5.7934   ZZ=    35.4626
   Eigenvalues:    26.2788    33.0308    39.3874
     20  H    Isotropic =    32.4106   Anisotropy =    14.4266
   XX=    31.0785   YX=     3.3964   ZX=    -3.2029
   XY=     3.4568   YY=    35.2490   ZY=    -6.3481
   XZ=    -3.4213   YZ=    -6.7799   ZZ=    30.9044
   Eigenvalues:    26.0294    29.1741    42.0283
     21  H    Isotropic =    32.5977   Anisotropy =    13.2415
   XX=    29.3989   YX=     0.1524   ZX=     0.2288
   XY=     0.4970   YY=    36.8416   ZY=     6.5641
   XZ=     0.4796   YZ=     6.8509   ZZ=    31.5525
   Eigenvalues:    26.9820    29.3857    41.4253
     22  H    Isotropic =    31.9910   Anisotropy =    13.8311
   XX=    33.9507   YX=    -5.3915   ZX=     2.7828
   XY=    -5.5076   YY=    33.4741   ZY=    -4.4246
   XZ=     2.9840   YZ=    -4.2111   ZZ=    28.5481
   Eigenvalues:    26.0257    28.7354    41.2117
     23  H    Isotropic =    32.4714   Anisotropy =    13.3545
   XX=    29.1525   YX=     0.9434   ZX=     1.5749
   XY=     1.3083   YY=    27.8988   ZY=     2.9854
   XZ=     2.1937   YZ=     2.8780   ZZ=    40.3628
   Eigenvalues:    26.9885    29.0512    41.3744
     24  H    Isotropic =    34.7625   Anisotropy =    17.6309
   XX=    37.9264   YX=     7.7736   ZX=     1.0536
   XY=     6.4493   YY=    39.5060   ZY=     4.5690
   XZ=     0.6339   YZ=     3.4125   ZZ=    26.8552
   Eigenvalues:    25.5521    32.2191    46.5164
     25  H    Isotropic =    32.8806   Anisotropy =    11.2538
   XX=    32.4409   YX=     2.3318   ZX=    -2.0156
   XY=     2.4651   YY=    35.0324   ZY=    -5.8958
   XZ=    -1.8832   YZ=    -5.6417   ZZ=    31.1687
   Eigenvalues:    27.0099    31.2489    40.3832
     26  H    Isotropic =    32.4480   Anisotropy =    10.1184
   XX=    31.4755   YX=    -2.7736   ZX=    -0.6596
   XY=    -2.6129   YY=    37.2317   ZY=    -3.5790
   XZ=    -0.7111   YZ=    -3.4499   ZZ=    28.6368
   Eigenvalues:    26.8114    31.3390    39.1936
     27  H    Isotropic =    32.5646   Anisotropy =    12.8232
   XX=    30.9615   YX=    -2.4291   ZX=    -2.6010
   XY=    -2.0408   YY=    28.7877   ZY=     5.1213
   XZ=    -2.4895   YZ=     4.7027   ZZ=    37.9446
   Eigenvalues:    26.3720    30.2085    41.1134
     28  H    Isotropic =    32.4869   Anisotropy =    14.3598
   XX=    42.0478   YX=     0.5390   ZX=    -0.3427
   XY=     0.2230   YY=    27.9456   ZY=     1.2884
   XZ=    -0.0806   YZ=     1.5679   ZZ=    27.4674
   Eigenvalues:    26.2480    29.1527    42.0601
     29  H    Isotropic =    32.6094   Anisotropy =     9.9713
   XX=    29.7386   YX=     0.7105   ZX=     2.1763
   XY=     0.9304   YY=    31.5598   ZY=    -4.3035
   XZ=     1.9921   YZ=    -4.3789   ZZ=    36.5297
   Eigenvalues:    27.5316    31.0396    39.2569
     30  H    Isotropic =    32.6580   Anisotropy =     9.8035
   XX=    32.8593   YX=    -3.9451   ZX=     0.5993
   XY=    -3.4824   YY=    33.2669   ZY=     5.3929
   XZ=    -0.0030   YZ=     5.4429   ZZ=    31.8477
   Eigenvalues:    25.9649    32.8154    39.1936
     31  H    Isotropic =    32.6450   Anisotropy =    14.6519
   XX=    38.0981   YX=     5.0388   ZX=     3.8591
   XY=     5.1030   YY=    29.7895   ZY=     3.1174
   XZ=     3.9180   YZ=     3.1120   ZZ=    30.0476
   Eigenvalues:    26.6231    28.8990    42.4130
 End of Minotr Frequency-dependent properties file   721 does not exist.
 End of Minotr Frequency-dependent properties file   722 does not exist.

 **********************************************************************

            Population analysis using the SCF density.

 **********************************************************************

 Orbital symmetries:
       Occupied  (A) (A) (A) (A) (A) (A) (A) (A) (A) (A) (A) (A)
                 (A) (A) (A) (A) (A) (A) (A) (A) (A) (A) (A) (A)
                 (A) (A) (A) (A) (A) (A) (A) (A) (A) (A) (A) (A)
                 (A) (A) (A) (A) (A) (A) (A) (A)
       Virtual   (A) (A) (A) (A) (A) (A) (A) (A) (A) (A) (A) (A)
                 (A) (A) (A) (A) (A) (A) (A) (A) (A) (A) (A) (A)
                 (A) (A) (A) (A) (A) (A) (A)
 The electronic state is 1-A.
 Alpha  occ. eigenvalues --  -20.23771 -11.08527 -11.05022 -11.04059 -11.04007
 Alpha  occ. eigenvalues --  -11.03542 -11.03229 -11.03213 -11.03180 -11.03155
 Alpha  occ. eigenvalues --  -11.01853  -1.28052  -1.07671  -1.03624  -0.96158
 Alpha  occ. eigenvalues --   -0.95045  -0.89057  -0.87524  -0.80275  -0.77686
 Alpha  occ. eigenvalues --   -0.72561  -0.67869  -0.63569  -0.61089  -0.58579
 Alpha  occ. eigenvalues --   -0.57366  -0.56632  -0.54427  -0.53656  -0.51767
 Alpha  occ. eigenvalues --   -0.50586  -0.49601  -0.49454  -0.47607  -0.46342
 Alpha  occ. eigenvalues --   -0.45132  -0.43704  -0.43604  -0.41968  -0.40727
 Alpha  occ. eigenvalues --   -0.39349  -0.39254  -0.36071  -0.32605
 Alpha virt. eigenvalues --    0.52777   0.55596   0.58202   0.60019   0.61186
 Alpha virt. eigenvalues --    0.61751   0.62236   0.65034   0.66440   0.66999
 Alpha virt. eigenvalues --    0.68144   0.68952   0.70793   0.71558   0.72056
 Alpha virt. eigenvalues --    0.72976   0.73783   0.74885   0.76459   0.76696
 Alpha virt. eigenvalues --    0.77507   0.78294   0.78886   0.79376   0.80576
 Alpha virt. eigenvalues --    0.81766   0.82073   0.83311   0.84221   0.84569
 Alpha virt. eigenvalues --    0.85354
          Condensed to atoms (all electrons):
              1          2          3          4          5          6
     1  C    4.742526   0.364610  -0.000439  -0.001330   0.000066  -0.023804
     2  C    0.364610   4.741661  -0.019650  -0.021114  -0.003627   0.362930
     3  C   -0.000439  -0.019650   4.741926  -0.021954   0.354046  -0.003785
     4  C   -0.001330  -0.021114  -0.021954   4.752774   0.362096   0.363396
     5  C    0.000066  -0.003627   0.354046   0.362096   4.792745  -0.021591
     6  C   -0.023804   0.362930  -0.003785   0.363396  -0.021591   4.754383
     7  C   -0.022969   0.361350   0.359036  -0.004185  -0.023100  -0.023271
     8  O   -0.000661  -0.000062   0.266776  -0.000449  -0.018235   0.000045
     9  C   -0.000001   0.000002  -0.020470  -0.019978   0.358834   0.000614
    10  C    0.000000   0.000000   0.000669  -0.000615  -0.023087   0.000000
    11  C    0.000000   0.000000   0.000029  -0.003631  -0.019246   0.000017
    12  H    0.382526  -0.020220   0.000013   0.000003  -0.000001   0.001248
    13  H    0.381482  -0.020626  -0.000011   0.000030  -0.000001  -0.001989
    14  H    0.382894  -0.019476   0.000008  -0.000403   0.000033  -0.001940
    15  H   -0.025785   0.382894   0.001189   0.001236   0.000014  -0.023527
    16  H   -0.000012   0.001152   0.376741   0.001167  -0.025690   0.000016
    17  H   -0.000419  -0.001456  -0.001720   0.382330  -0.021617  -0.022655
    18  H    0.000008   0.001222   0.001187   0.382663  -0.021126  -0.022103
    19  H    0.000000   0.000080  -0.023886  -0.024408   0.378504  -0.002419
    20  H   -0.003236  -0.021134   0.000005  -0.021618   0.001215   0.382712
    21  H    0.001312  -0.022714   0.000040  -0.023606  -0.002001   0.380976
    22  H   -0.003363  -0.021510  -0.021251   0.000003   0.001116   0.001198
    23  H    0.001296  -0.022629  -0.021788   0.000065  -0.000996  -0.001060
    24  H    0.000038  -0.000017  -0.041250   0.000030  -0.000251  -0.000006
    25  H    0.000000   0.000000  -0.004113   0.001061  -0.023689  -0.000014
    26  H    0.000000   0.000000   0.000000  -0.000301  -0.001676  -0.000006
    27  H    0.000000   0.000000   0.000032   0.000041  -0.002572  -0.000001
    28  H    0.000000   0.000000  -0.000015  -0.000004   0.001202   0.000000
    29  H    0.000000   0.000000   0.000002  -0.000790  -0.001162   0.000007
    30  H    0.000000   0.000000   0.000131  -0.000217  -0.001660  -0.000002
    31  H    0.000000   0.000000  -0.000010   0.000046   0.001079   0.000000
              7          8          9         10         11         12
     1  C   -0.022969  -0.000661  -0.000001   0.000000   0.000000   0.382526
     2  C    0.361350  -0.000062   0.000002   0.000000   0.000000  -0.020220
     3  C    0.359036   0.266776  -0.020470   0.000669   0.000029   0.000013
     4  C   -0.004185  -0.000449  -0.019978  -0.000615  -0.003631   0.000003
     5  C   -0.023100  -0.018235   0.358834  -0.023087  -0.019246  -0.000001
     6  C   -0.023271   0.000045   0.000614   0.000000   0.000017   0.001248
     7  C    4.763729  -0.019520   0.000573  -0.000005  -0.000007  -0.002560
     8  O   -0.019520   7.848667  -0.000556  -0.000001  -0.000689   0.000010
     9  C    0.000573  -0.000556   4.743410   0.364071   0.364359   0.000000
    10  C   -0.000005  -0.000001   0.364071   4.744318  -0.026878   0.000000
    11  C   -0.000007  -0.000689   0.364359  -0.026878   4.745097   0.000000
    12  H   -0.002560   0.000010   0.000000   0.000000   0.000000   0.630851
    13  H    0.001233   0.000009   0.000000   0.000000   0.000000  -0.021830
    14  H   -0.001228   0.000231   0.000001   0.000000  -0.000001  -0.021332
    15  H   -0.023689  -0.000008   0.000001   0.000000   0.000000  -0.002107
    16  H   -0.024008  -0.018093  -0.001940   0.000012   0.000013  -0.000003
    17  H    0.000098   0.000256  -0.001631   0.000031  -0.000904  -0.000006
    18  H    0.000014  -0.000006  -0.001641  -0.000310  -0.000175   0.000001
    19  H   -0.001580   0.000592  -0.023162  -0.005452   0.001088   0.000000
    20  H    0.001200  -0.000001  -0.000013   0.000000   0.000000   0.000039
    21  H   -0.001132   0.000000   0.000005   0.000002  -0.000001  -0.000036
    22  H    0.381738  -0.000959  -0.000013   0.000000   0.000000   0.000207
    23  H    0.380386   0.000618   0.000005   0.000000   0.000000   0.000034
    24  H    0.002670   0.258993   0.000066   0.000000  -0.001099  -0.000002
    25  H    0.000028  -0.000022   0.380547  -0.024679  -0.024715   0.000000
    26  H    0.000000   0.000000  -0.020256   0.382366  -0.002284   0.000000
    27  H   -0.000001   0.000000  -0.020127   0.382296   0.001331   0.000000
    28  H    0.000000   0.000000  -0.019852   0.382300  -0.002451   0.000000
    29  H    0.000000   0.000014  -0.020079  -0.002910   0.382865   0.000000
    30  H   -0.000005  -0.000354  -0.019522   0.001341   0.382531   0.000000
    31  H    0.000000   0.000009  -0.020154  -0.002241   0.381914   0.000000
             13         14         15         16         17         18
     1  C    0.381482   0.382894  -0.025785  -0.000012  -0.000419   0.000008
     2  C   -0.020626  -0.019476   0.382894   0.001152  -0.001456   0.001222
     3  C   -0.000011   0.000008   0.001189   0.376741  -0.001720   0.001187
     4  C    0.000030  -0.000403   0.001236   0.001167   0.382330   0.382663
     5  C   -0.000001   0.000033   0.000014  -0.025690  -0.021617  -0.021126
     6  C   -0.001989  -0.001940  -0.023527   0.000016  -0.022655  -0.022103
     7  C    0.001233  -0.001228  -0.023689  -0.024008   0.000098   0.000014
     8  O    0.000009   0.000231  -0.000008  -0.018093   0.000256  -0.000006
     9  C    0.000000   0.000001   0.000001  -0.001940  -0.001631  -0.001641
    10  C    0.000000   0.000000   0.000000   0.000012   0.000031  -0.000310
    11  C    0.000000  -0.000001   0.000000   0.000013  -0.000904  -0.000175
    12  H   -0.021830  -0.021332  -0.002107  -0.000003  -0.000006   0.000001
    13  H    0.638239  -0.022227  -0.003082   0.000001   0.000043  -0.000004
    14  H   -0.022227   0.616133   0.001929   0.000002  -0.000493  -0.000005
    15  H   -0.003082   0.001929   0.654979  -0.000030  -0.000004  -0.000031
    16  H    0.000001   0.000002  -0.000030   0.666400   0.000005  -0.000031
    17  H    0.000043  -0.000493  -0.000004   0.000005   0.635037  -0.023633
    18  H   -0.000004  -0.000005  -0.000031  -0.000031  -0.023633   0.643196
    19  H    0.000000  -0.000002  -0.000017  -0.002429   0.001914  -0.002483
    20  H    0.000181   0.000007  -0.001206   0.000002  -0.002625  -0.001992
    21  H    0.000024   0.000003  -0.003849  -0.000009   0.001976  -0.002935
    22  H    0.000043   0.000013  -0.001137  -0.001612  -0.000010   0.000002
    23  H   -0.000037  -0.000007  -0.004214  -0.003315   0.000003  -0.000007
    24  H   -0.000001   0.000022   0.000001  -0.007136   0.000002  -0.000002
    25  H    0.000000   0.000000   0.000000   0.000410   0.000007   0.000003
    26  H    0.000000   0.000000   0.000000   0.000000   0.000022  -0.000213
    27  H    0.000000   0.000000   0.000000   0.000009  -0.000002   0.000028
    28  H    0.000000   0.000000   0.000000  -0.000001  -0.000001  -0.000008
    29  H    0.000000   0.000000   0.000000  -0.000001  -0.000876  -0.000143
    30  H    0.000000   0.000002   0.000000   0.000029  -0.000201   0.000027
    31  H    0.000000   0.000000   0.000000  -0.000001   0.000020  -0.000006
             19         20         21         22         23         24
     1  C    0.000000  -0.003236   0.001312  -0.003363   0.001296   0.000038
     2  C    0.000080  -0.021134  -0.022714  -0.021510  -0.022629  -0.000017
     3  C   -0.023886   0.000005   0.000040  -0.021251  -0.021788  -0.041250
     4  C   -0.024408  -0.021618  -0.023606   0.000003   0.000065   0.000030
     5  C    0.378504   0.001215  -0.002001   0.001116  -0.000996  -0.000251
     6  C   -0.002419   0.382712   0.380976   0.001198  -0.001060  -0.000006
     7  C   -0.001580   0.001200  -0.001132   0.381738   0.380386   0.002670
     8  O    0.000592  -0.000001   0.000000  -0.000959   0.000618   0.258993
     9  C   -0.023162  -0.000013   0.000005  -0.000013   0.000005   0.000066
    10  C   -0.005452   0.000000   0.000002   0.000000   0.000000   0.000000
    11  C    0.001088   0.000000  -0.000001   0.000000   0.000000  -0.001099
    12  H    0.000000   0.000039  -0.000036   0.000207   0.000034  -0.000002
    13  H    0.000000   0.000181   0.000024   0.000043  -0.000037  -0.000001
    14  H   -0.000002   0.000007   0.000003   0.000013  -0.000007   0.000022
    15  H   -0.000017  -0.001206  -0.003849  -0.001137  -0.004214   0.000001
    16  H   -0.002429   0.000002  -0.000009  -0.001612  -0.003315  -0.007136
    17  H    0.001914  -0.002625   0.001976  -0.000010   0.000003   0.000002
    18  H   -0.002483  -0.001992  -0.002935   0.000002  -0.000007  -0.000002
    19  H    0.658323   0.000015   0.000358   0.000017  -0.000074  -0.000043
    20  H    0.000015   0.639760  -0.023523  -0.000032   0.000000   0.000000
    21  H    0.000358  -0.023523   0.650764   0.000000   0.000202   0.000000
    22  H    0.000017  -0.000032   0.000000   0.628799  -0.022218   0.000072
    23  H   -0.000074   0.000000   0.000202  -0.022218   0.644555  -0.000087
    24  H   -0.000043   0.000000   0.000000   0.000072  -0.000087   0.610009
    25  H   -0.000201   0.000000   0.000000  -0.000002   0.000001  -0.000072
    26  H    0.000022   0.000001   0.000001   0.000000   0.000000   0.000000
    27  H   -0.000035   0.000000   0.000000   0.000000   0.000000   0.000000
    28  H    0.000083   0.000000   0.000000   0.000000   0.000000   0.000000
    29  H   -0.000001   0.000001  -0.000001   0.000000   0.000000   0.000011
    30  H    0.000004   0.000000   0.000000   0.000000   0.000000  -0.001049
    31  H   -0.000028   0.000000   0.000000   0.000000   0.000000   0.000026
             25         26         27         28         29         30
     1  C    0.000000   0.000000   0.000000   0.000000   0.000000   0.000000
     2  C    0.000000   0.000000   0.000000   0.000000   0.000000   0.000000
     3  C   -0.004113   0.000000   0.000032  -0.000015   0.000002   0.000131
     4  C    0.001061  -0.000301   0.000041  -0.000004  -0.000790  -0.000217
     5  C   -0.023689  -0.001676  -0.002572   0.001202  -0.001162  -0.001660
     6  C   -0.000014  -0.000006  -0.000001   0.000000   0.000007  -0.000002
     7  C    0.000028   0.000000  -0.000001   0.000000   0.000000  -0.000005
     8  O   -0.000022   0.000000   0.000000   0.000000   0.000014  -0.000354
     9  C    0.380547  -0.020256  -0.020127  -0.019852  -0.020079  -0.019522
    10  C   -0.024679   0.382366   0.382296   0.382300  -0.002910   0.001341
    11  C   -0.024715  -0.002284   0.001331  -0.002451   0.382865   0.382531
    12  H    0.000000   0.000000   0.000000   0.000000   0.000000   0.000000
    13  H    0.000000   0.000000   0.000000   0.000000   0.000000   0.000000
    14  H    0.000000   0.000000   0.000000   0.000000   0.000000   0.000002
    15  H    0.000000   0.000000   0.000000   0.000000   0.000000   0.000000
    16  H    0.000410   0.000000   0.000009  -0.000001  -0.000001   0.000029
    17  H    0.000007   0.000022  -0.000002  -0.000001  -0.000876  -0.000201
    18  H    0.000003  -0.000213   0.000028  -0.000008  -0.000143   0.000027
    19  H   -0.000201   0.000022  -0.000035   0.000083  -0.000001   0.000004
    20  H    0.000000   0.000001   0.000000   0.000000   0.000001   0.000000
    21  H    0.000000   0.000001   0.000000   0.000000  -0.000001   0.000000
    22  H   -0.000002   0.000000   0.000000   0.000000   0.000000   0.000000
    23  H    0.000001   0.000000   0.000000   0.000000   0.000000   0.000000
    24  H   -0.000072   0.000000   0.000000   0.000000   0.000011  -0.001049
    25  H    0.660241   0.001913  -0.002353  -0.002438   0.001889  -0.001565
    26  H    0.001913   0.629553  -0.021720  -0.021780   0.000324   0.000011
    27  H   -0.002353  -0.021720   0.632973  -0.021936   0.000025  -0.000038
    28  H   -0.002438  -0.021780  -0.021936   0.631426  -0.000027   0.000032
    29  H    0.001889   0.000324   0.000025  -0.000027   0.627075  -0.021569
    30  H   -0.001565   0.000011  -0.000038   0.000032  -0.021569   0.627104
    31  H   -0.003023   0.000004   0.000025   0.000053  -0.021999  -0.022130
             31
     1  C    0.000000
     2  C    0.000000
     3  C   -0.000010
     4  C    0.000046
     5  C    0.001079
     6  C    0.000000
     7  C    0.000000
     8  O    0.000009
     9  C   -0.020154
    10  C   -0.002241
    11  C    0.381914
    12  H    0.000000
    13  H    0.000000
    14  H    0.000000
    15  H    0.000000
    16  H   -0.000001
    17  H    0.000020
    18  H   -0.000006
    19  H   -0.000028
    20  H    0.000000
    21  H    0.000000
    22  H    0.000000
    23  H    0.000000
    24  H    0.000026
    25  H   -0.003023
    26  H    0.000004
    27  H    0.000025
    28  H    0.000053
    29  H   -0.021999
    30  H   -0.022130
    31  H    0.633178
 Mulliken atomic charges:
              1
     1  C   -0.174741
     2  C   -0.021664
     3  C    0.078512
     4  C   -0.102339
     5  C   -0.039621
     6  C   -0.099369
     7  C   -0.104797
     8  O   -0.316602
     9  C   -0.023094
    10  C   -0.171228
    11  C   -0.177165
    12  H    0.053167
    13  H    0.048525
    14  H    0.065838
    15  H    0.046445
    16  H    0.038352
    17  H    0.056509
    18  H    0.048503
    19  H    0.045217
    20  H    0.050244
    21  H    0.044144
    22  H    0.058896
    23  H    0.049265
    24  H    0.179075
    25  H    0.040785
    26  H    0.054020
    27  H    0.052025
    28  H    0.053417
    29  H    0.057345
    30  H    0.057100
    31  H    0.053238
 Sum of Mulliken atomic charges =   0.00000
 Mulliken charges with hydrogens summed into heavy atoms:
              1
     1  C   -0.007211
     2  C    0.024781
     3  C    0.116864
     4  C    0.002673
     5  C    0.005596
     6  C   -0.004982
     7  C    0.003364
     8  O   -0.137528
     9  C    0.017691
    10  C   -0.011767
    11  C   -0.009481
 Sum of Mulliken charges with hydrogens summed into heavy atoms =   0.00000
 Electronic spatial extent (au):  <R**2>=           2001.8294
 Charge=              0.0000 electrons
 Dipole moment (field-independent basis, Debye):
    X=              1.0618    Y=             -0.1369    Z=             -0.8532  Tot=              1.3690
 Quadrupole moment (field-independent basis, Debye-Ang):
   XX=            -67.9553   YY=            -67.1029   ZZ=            -67.3765
   XY=              2.8265   XZ=              0.7505   YZ=             -1.2941
 Traceless Quadrupole moment (field-independent basis, Debye-Ang):
   XX=             -0.4770   YY=              0.3754   ZZ=              0.1017
   XY=              2.8265   XZ=              0.7505   YZ=             -1.2941
 Octapole moment (field-independent basis, Debye-Ang**2):
  XXX=             -1.7673  YYY=             15.1595  ZZZ=             -0.2794  XYY=              5.3864
  XXY=              5.2265  XXZ=             -0.1207  XZZ=             -0.8269  YZZ=              2.3930
  YYZ=             -0.8767  XYZ=              0.7558
 Hexadecapole moment (field-independent basis, Debye-Ang**3):
 XXXX=          -1671.6890 YYYY=           -493.5033 ZZZZ=           -383.2747 XXXY=              4.1241
 XXXZ=              7.3189 YYYX=              8.9962 YYYZ=             -1.4511 ZZZX=             -2.8481
 ZZZY=              2.6037 XXYY=           -362.6398 XXZZ=           -347.3026 YYZZ=           -145.7988
 XXYZ=             -4.1988 YYXZ=              2.3538 ZZXY=              0.1149
 N-N= 7.027910429970D+02 E-N=-2.477706059133D+03  KE= 4.555327643629D+02
 ******************************Gaussian NBO Version 3.1******************************
             N A T U R A L   A T O M I C   O R B I T A L   A N D
          N A T U R A L   B O N D   O R B I T A L   A N A L Y S I S
 ******************************Gaussian NBO Version 3.1******************************
       /RESON  / : Allow strongly delocalized NBO set
       /NLMO   / : Form Natural Localized Molecular Orbitals
       /NMR /    : Analyze NMR Sheilding Tensor 

 Analyzing the SCF density

 Job title: comment                                                         

 Storage needed:     19864 in NPA,     23691 in NBO,     45933 in NLMO (  33549317 available)


 NATURAL POPULATIONS:  Natural atomic orbital occupancies 
                                                          
   NAO  Atom  No  lang   Type(AO)    Occupancy      Energy
 ----------------------------------------------------------
     1    C    1  S      Cor( 1S)     1.99997     -10.95213
     2    C    1  S      Val( 2S)     1.07996      -0.16911
     3    C    1  px     Val( 2p)     1.02805       0.09393
     4    C    1  py     Val( 2p)     1.01953       0.09853
     5    C    1  pz     Val( 2p)     1.00320       0.10060

     6    C    2  S      Cor( 1S)     1.99997     -10.98307
     7    C    2  S      Val( 2S)     1.08010      -0.18587
     8    C    2  px     Val( 2p)     0.97749       0.11132
     9    C    2  py     Val( 2p)     0.96300       0.11498
    10    C    2  pz     Val( 2p)     0.96268       0.11645

    11    C    3  S      Cor( 1S)     1.99989     -11.03445
    12    C    3  S      Val( 2S)     1.08828      -0.21663
    13    C    3  px     Val( 2p)     0.97555       0.08390
    14    C    3  py     Val( 2p)     0.91056       0.10391
    15    C    3  pz     Val( 2p)     0.87971       0.11566

    16    C    4  S      Cor( 1S)     1.99996     -10.97039
    17    C    4  S      Val( 2S)     1.08252      -0.18330
    18    C    4  px     Val( 2p)     0.98303       0.10075
    19    C    4  py     Val( 2p)     1.00176       0.09892
    20    C    4  pz     Val( 2p)     0.99817       0.09963

    21    C    5  S      Cor( 1S)     1.99995     -10.98599
    22    C    5  S      Val( 2S)     1.10253      -0.20992
    23    C    5  px     Val( 2p)     0.95498       0.10721
    24    C    5  py     Val( 2p)     0.97623       0.09978
    25    C    5  pz     Val( 2p)     0.98624       0.10177

    26    C    6  S      Cor( 1S)     1.99996     -10.96974
    27    C    6  S      Val( 2S)     1.08299      -0.18296
    28    C    6  px     Val( 2p)     0.97698       0.10456
    29    C    6  py     Val( 2p)     0.98889       0.09964
    30    C    6  pz     Val( 2p)     1.01284       0.09847

    31    C    7  S      Cor( 1S)     1.99995     -10.97443
    32    C    7  S      Val( 2S)     1.09136      -0.19441
    33    C    7  px     Val( 2p)     0.98338       0.09646
    34    C    7  py     Val( 2p)     1.00687       0.09421
    35    C    7  pz     Val( 2p)     0.99870       0.09129

    36    O    8  S      Cor( 1S)     1.99999     -20.14082
    37    O    8  S      Val( 2S)     1.74726      -0.99859
    38    O    8  px     Val( 2p)     1.51917      -0.19605
    39    O    8  py     Val( 2p)     1.46689      -0.16010
    40    O    8  pz     Val( 2p)     1.60461      -0.22072

    41    C    9  S      Cor( 1S)     1.99996     -10.99442
    42    C    9  S      Val( 2S)     1.08560      -0.20052
    43    C    9  px     Val( 2p)     0.95685       0.10440
    44    C    9  py     Val( 2p)     0.97564       0.10168
    45    C    9  pz     Val( 2p)     0.96294       0.10814

    46    C   10  S      Cor( 1S)     1.99997     -10.96622
    47    C   10  S      Val( 2S)     1.08205      -0.18479
    48    C   10  px     Val( 2p)     1.01092       0.08397
    49    C   10  py     Val( 2p)     1.00934       0.08534
    50    C   10  pz     Val( 2p)     1.02418       0.08346

    51    C   11  S      Cor( 1S)     1.99997     -10.96541
    52    C   11  S      Val( 2S)     1.08061      -0.18310
    53    C   11  px     Val( 2p)     1.02897       0.08204
    54    C   11  py     Val( 2p)     1.02948       0.08155
    55    C   11  pz     Val( 2p)     0.99431       0.08786

    56    H   12  S      Val( 1S)     0.96382       0.08655

    57    H   13  S      Val( 1S)     0.96823       0.08188

    58    H   14  S      Val( 1S)     0.95297       0.09979

    59    H   15  S      Val( 1S)     0.97781       0.07092

    60    H   16  S      Val( 1S)     0.99647       0.04405

    61    H   17  S      Val( 1S)     0.96524       0.08307

    62    H   18  S      Val( 1S)     0.97205       0.07334

    63    H   19  S      Val( 1S)     0.97928       0.06233

    64    H   20  S      Val( 1S)     0.97046       0.07504

    65    H   21  S      Val( 1S)     0.97642       0.07125

    66    H   22  S      Val( 1S)     0.96243       0.07796

    67    H   23  S      Val( 1S)     0.97098       0.06724

    68    H   24  S      Val( 1S)     0.80817       0.07848

    69    H   25  S      Val( 1S)     0.98393       0.05587

    70    H   26  S      Val( 1S)     0.96373       0.07420

    71    H   27  S      Val( 1S)     0.96550       0.07260

    72    H   28  S      Val( 1S)     0.96410       0.07264

    73    H   29  S      Val( 1S)     0.96000       0.07710

    74    H   30  S      Val( 1S)     0.96083       0.07925

    75    H   31  S      Val( 1S)     0.96368       0.07222


 Summary of Natural Population Analysis:                  
                                                          
                                       Natural Population 
                Natural  -----------------------------------------------
    Atom  No    Charge         Core      Valence    Rydberg      Total
 -----------------------------------------------------------------------
      C    1   -0.13071      1.99997     4.13074    0.00000     6.13071
      C    2    0.01677      1.99997     3.98327    0.00000     5.98323
      C    3    0.14601      1.99989     3.85410    0.00000     5.85399
      C    4   -0.06544      1.99996     4.06548    0.00000     6.06544
      C    5   -0.01994      1.99995     4.01998    0.00000     6.01994
      C    6   -0.06167      1.99996     4.06170    0.00000     6.06167
      C    7   -0.08026      1.99995     4.08030    0.00000     6.08026
      O    8   -0.33792      1.99999     6.33792    0.00000     8.33792
      C    9    0.01901      1.99996     3.98103    0.00000     5.98099
      C   10   -0.12646      1.99997     4.12649    0.00000     6.12646
      C   11   -0.13333      1.99997     4.13337    0.00000     6.13333
      H   12    0.03618      0.00000     0.96382    0.00000     0.96382
      H   13    0.03177      0.00000     0.96823    0.00000     0.96823
      H   14    0.04703      0.00000     0.95297    0.00000     0.95297
      H   15    0.02219      0.00000     0.97781    0.00000     0.97781
      H   16    0.00353      0.00000     0.99647    0.00000     0.99647
      H   17    0.03476      0.00000     0.96524    0.00000     0.96524
      H   18    0.02795      0.00000     0.97205    0.00000     0.97205
      H   19    0.02072      0.00000     0.97928    0.00000     0.97928
      H   20    0.02954      0.00000     0.97046    0.00000     0.97046
      H   21    0.02358      0.00000     0.97642    0.00000     0.97642
      H   22    0.03757      0.00000     0.96243    0.00000     0.96243
      H   23    0.02902      0.00000     0.97098    0.00000     0.97098
      H   24    0.19183      0.00000     0.80817    0.00000     0.80817
      H   25    0.01607      0.00000     0.98393    0.00000     0.98393
      H   26    0.03627      0.00000     0.96373    0.00000     0.96373
      H   27    0.03450      0.00000     0.96550    0.00000     0.96550
      H   28    0.03590      0.00000     0.96410    0.00000     0.96410
      H   29    0.04000      0.00000     0.96000    0.00000     0.96000
      H   30    0.03917      0.00000     0.96083    0.00000     0.96083
      H   31    0.03632      0.00000     0.96368    0.00000     0.96368
 =======================================================================
   * Total *    0.00000     21.99954    66.00046    0.00000    88.00000

                                 Natural Population      
 --------------------------------------------------------
   Core                      21.99954 ( 99.9979% of  22)
   Valence                   66.00046 (100.0007% of  66)
   Natural Minimal Basis     88.00000 (100.0000% of  88)
   Natural Rydberg Basis      0.00000 (  0.0000% of  88)
 --------------------------------------------------------

    Atom  No          Natural Electron Configuration
 ----------------------------------------------------------------------------
      C    1      [core]2S( 1.08)2p( 3.05)
      C    2      [core]2S( 1.08)2p( 2.90)
      C    3      [core]2S( 1.09)2p( 2.77)
      C    4      [core]2S( 1.08)2p( 2.98)
      C    5      [core]2S( 1.10)2p( 2.92)
      C    6      [core]2S( 1.08)2p( 2.98)
      C    7      [core]2S( 1.09)2p( 2.99)
      O    8      [core]2S( 1.75)2p( 4.59)
      C    9      [core]2S( 1.09)2p( 2.90)
      C   10      [core]2S( 1.08)2p( 3.04)
      C   11      [core]2S( 1.08)2p( 3.05)
      H   12            1S( 0.96)
      H   13            1S( 0.97)
      H   14            1S( 0.95)
      H   15            1S( 0.98)
      H   16            1S( 1.00)
      H   17            1S( 0.97)
      H   18            1S( 0.97)
      H   19            1S( 0.98)
      H   20            1S( 0.97)
      H   21            1S( 0.98)
      H   22            1S( 0.96)
      H   23            1S( 0.97)
      H   24            1S( 0.81)
      H   25            1S( 0.98)
      H   26            1S( 0.96)
      H   27            1S( 0.97)
      H   28            1S( 0.96)
      H   29            1S( 0.96)
      H   30            1S( 0.96)
      H   31            1S( 0.96)


 NATURAL BOND ORBITAL ANALYSIS:

                       Occupancies       Lewis Structure    Low   High
           Occ.    -------------------  -----------------   occ   occ
  Cycle   Thresh.   Lewis   Non-Lewis     CR  BD  3C  LP    (L)   (NL)   Dev
 =============================================================================
   1(1)    1.90    87.63683   0.36317     11  31   0   2     0      0    0.02
 -----------------------------------------------------------------------------

 Structure accepted: No low occupancy Lewis orbitals

 --------------------------------------------------------
   Core                     21.99954 ( 99.998% of  22)
   Valence Lewis            65.63729 ( 99.450% of  66)
  ==================       ============================
   Total Lewis              87.63683 ( 99.587% of  88)
  -----------------------------------------------------
   Valence non-Lewis         0.36317 (  0.413% of  88)
   Rydberg non-Lewis         0.00000 (  0.000% of  88)
  ==================       ============================
   Total non-Lewis           0.36317 (  0.413% of  88)
 --------------------------------------------------------


       (Occupancy)   Bond orbital/ Coefficients/ Hybrids
 ---------------------------------------------------------------------------------
     1. (1.99057) BD ( 1) C   1 - C   2  
                ( 50.66%)   0.7118* C   1 s( 25.82%)p 2.87( 74.18%)
                                            0.0001  0.5081  0.3102 -0.3959 -0.6992
                ( 49.34%)   0.7024* C   2 s( 25.29%)p 2.95( 74.71%)
                                            0.0000  0.5029 -0.2597  0.4198  0.7095
     2. (1.99470) BD ( 1) C   1 - H  12  
                ( 51.81%)   0.7198* C   1 s( 24.71%)p 3.05( 75.29%)
                                            0.0000  0.4971 -0.5452  0.6316 -0.2382
                ( 48.19%)   0.6942* H  12 s(100.00%)
                                            1.0000
     3. (1.99476) BD ( 1) C   1 - H  13  
                ( 51.59%)   0.7182* C   1 s( 24.38%)p 3.10( 75.62%)
                                            0.0000  0.4938 -0.4293 -0.5734  0.4931
                ( 48.41%)   0.6958* H  13 s(100.00%)
                                            1.0000
     4. (1.99532) BD ( 1) C   1 - H  14  
                ( 52.43%)   0.7241* C   1 s( 25.08%)p 2.99( 74.92%)
                                            0.0000  0.5008  0.6498  0.3401  0.4597
                ( 47.57%)   0.6897* H  14 s(100.00%)
                                            1.0000
     5. (1.98541) BD ( 1) C   2 - C   6  
                ( 49.54%)   0.7038* C   2 s( 25.17%)p 2.97( 74.83%)
                                            0.0000  0.5017  0.5666 -0.6167  0.2167
                ( 50.46%)   0.7104* C   6 s( 25.46%)p 2.93( 74.54%)
                                            0.0001  0.5046 -0.5363  0.6490 -0.1912
     6. (1.98518) BD ( 1) C   2 - C   7  
                ( 49.30%)   0.7022* C   2 s( 25.21%)p 2.97( 74.79%)
                                            0.0000  0.5021  0.3706  0.5559 -0.5491
                ( 50.70%)   0.7120* C   7 s( 25.36%)p 2.94( 74.64%)
                                            0.0001  0.5036 -0.3229 -0.5326  0.5987
     7. (1.98424) BD ( 1) C   2 - H  15  
                ( 50.98%)   0.7140* C   2 s( 24.33%)p 3.11( 75.67%)
                                            0.0000  0.4933 -0.6886 -0.3666 -0.3848
                ( 49.02%)   0.7001* H  15 s(100.00%)
                                            1.0000
     8. (1.98299) BD ( 1) C   3 - C   5  
                ( 50.06%)   0.7075* C   3 s( 26.09%)p 2.83( 73.91%)
                                            0.0001  0.5108  0.5200 -0.6471  0.2236
                ( 49.94%)   0.7067* C   5 s( 24.82%)p 3.03( 75.18%)
                                            0.0000  0.4982 -0.5164  0.6789 -0.1557
     9. (1.98661) BD ( 1) C   3 - C   7  
                ( 49.97%)   0.7069* C   3 s( 26.32%)p 2.80( 73.68%)
                                            0.0000  0.5130 -0.7912 -0.2883 -0.1664
                ( 50.03%)   0.7073* C   7 s( 25.26%)p 2.96( 74.74%)
                                            0.0001  0.5026  0.7865  0.2675  0.2394
    10. (1.98965) BD ( 1) C   3 - O   8  
                ( 40.92%)   0.6397* C   3 s( 22.40%)p 3.46( 77.60%)
                                            0.0000  0.4733 -0.0420  0.5711  0.6694
                ( 59.08%)   0.7687* O   8 s( 16.67%)p 5.00( 83.33%)
                                            0.0000  0.4083  0.1246 -0.5861 -0.6887
    11. (1.98803) BD ( 1) C   3 - H  16  
                ( 50.39%)   0.7098* C   3 s( 25.19%)p 2.97( 74.81%)
                                            0.0000  0.5019  0.3191  0.4147 -0.6886
                ( 49.61%)   0.7044* H  16 s(100.00%)
                                            1.0000
    12. (1.98528) BD ( 1) C   4 - C   5  
                ( 50.12%)   0.7080* C   4 s( 25.24%)p 2.96( 74.76%)
                                            0.0001  0.5024  0.3399  0.5105 -0.6095
                ( 49.88%)   0.7062* C   5 s( 25.52%)p 2.92( 74.48%)
                                            0.0000  0.5052 -0.3351 -0.4802  0.6339
    13. (1.98943) BD ( 1) C   4 - C   6  
                ( 50.02%)   0.7072* C   4 s( 25.08%)p 2.99( 74.92%)
                                            0.0000  0.5008 -0.7802 -0.2761 -0.2535
                ( 49.98%)   0.7070* C   6 s( 25.31%)p 2.95( 74.69%)
                                            0.0000  0.5031  0.7695  0.3144  0.2364
    14. (1.99011) BD ( 1) C   4 - H  17  
                ( 51.78%)   0.7196* C   4 s( 24.84%)p 3.03( 75.16%)
                                            0.0000  0.4984 -0.0780  0.4450  0.7399
                ( 48.22%)   0.6944* H  17 s(100.00%)
                                            1.0000
    15. (1.98893) BD ( 1) C   4 - H  18  
                ( 51.36%)   0.7166* C   4 s( 24.84%)p 3.03( 75.16%)
                                            0.0000  0.4984  0.5194 -0.6820  0.1292
                ( 48.64%)   0.6975* H  18 s(100.00%)
                                            1.0000
    16. (1.97928) BD ( 1) C   5 - C   9  
                ( 49.86%)   0.7061* C   5 s( 25.65%)p 2.90( 74.35%)
                                            0.0001  0.5065  0.7859  0.2769  0.2215
                ( 50.14%)   0.7081* C   9 s( 25.48%)p 2.93( 74.52%)
                                            0.0001  0.5047 -0.8096 -0.2631 -0.1434
    17. (1.98266) BD ( 1) C   5 - H  19  
                ( 50.91%)   0.7135* C   5 s( 24.00%)p 3.17( 76.00%)
                                            0.0000  0.4899  0.0581 -0.4814 -0.7245
                ( 49.09%)   0.7006* H  19 s(100.00%)
                                            1.0000
    18. (1.98991) BD ( 1) C   6 - H  20  
                ( 51.46%)   0.7174* C   6 s( 25.01%)p 3.00( 74.99%)
                                            0.0000  0.5001 -0.3319 -0.4730  0.6450
                ( 48.54%)   0.6967* H  20 s(100.00%)
                                            1.0000
    19. (1.99057) BD ( 1) C   6 - H  21  
                ( 51.18%)   0.7154* C   6 s( 24.22%)p 3.13( 75.78%)
                                            0.0000  0.4921  0.1005 -0.5062 -0.7011
                ( 48.82%)   0.6987* H  21 s(100.00%)
                                            1.0000
    20. (1.98889) BD ( 1) C   7 - H  22  
                ( 51.84%)   0.7200* C   7 s( 25.13%)p 2.98( 74.87%)
                                            0.0000  0.5013 -0.5230  0.6825 -0.0965
                ( 48.16%)   0.6940* H  22 s(100.00%)
                                            1.0000
    21. (1.98847) BD ( 1) C   7 - H  23  
                ( 51.36%)   0.7166* C   7 s( 24.25%)p 3.12( 75.75%)
                                            0.0000  0.4925  0.0599 -0.4230 -0.7583
                ( 48.64%)   0.6975* H  23 s(100.00%)
                                            1.0000
    22. (1.98921) BD ( 1) O   8 - H  24  
                ( 59.60%)   0.7720* O   8 s( 16.80%)p 4.95( 83.20%)
                                            0.0000  0.4099  0.7628  0.4983 -0.0430
                ( 40.40%)   0.6356* H  24 s(100.00%)
                                            1.0000
    23. (1.98925) BD ( 1) C   9 - C  10  
                ( 49.07%)   0.7005* C   9 s( 24.58%)p 3.07( 75.42%)
                                            0.0000  0.4958  0.5523 -0.6400 -0.1989
                ( 50.93%)   0.7137* C  10 s( 25.70%)p 2.89( 74.30%)
                                            0.0001  0.5069 -0.5716  0.6106  0.2088
    24. (1.99012) BD ( 1) C   9 - C  11  
                ( 49.18%)   0.7013* C   9 s( 25.50%)p 2.92( 74.50%)
                                            0.0000  0.5050  0.0973  0.2173  0.8297
                ( 50.82%)   0.7128* C  11 s( 25.89%)p 2.86( 74.11%)
                                            0.0001  0.5088 -0.1517 -0.2319 -0.8151
    25. (1.98451) BD ( 1) C   9 - H  25  
                ( 50.72%)   0.7121* C   9 s( 24.44%)p 3.09( 75.56%)
                                            0.0000  0.4944  0.1734  0.6884 -0.5015
                ( 49.28%)   0.7020* H  25 s(100.00%)
                                            1.0000
    26. (1.99528) BD ( 1) C  10 - H  26  
                ( 51.86%)   0.7201* C  10 s( 24.94%)p 3.01( 75.06%)
                                            0.0000  0.4994 -0.1371 -0.7075  0.4809
                ( 48.14%)   0.6938* H  26 s(100.00%)
                                            1.0000
    27. (1.99503) BD ( 1) C  10 - H  27  
                ( 51.74%)   0.7193* C  10 s( 24.66%)p 3.05( 75.34%)
                                            0.0000  0.4966 -0.0840 -0.2038 -0.8395
                ( 48.26%)   0.6947* H  27 s(100.00%)
                                            1.0000
    28. (1.99496) BD ( 1) C  10 - H  28  
                ( 51.81%)   0.7198* C  10 s( 24.70%)p 3.05( 75.30%)
                                            0.0000  0.4970  0.8047  0.2918  0.1426
                ( 48.19%)   0.6942* H  28 s(100.00%)
                                            1.0000
    29. (1.99509) BD ( 1) C  11 - H  29  
                ( 52.04%)   0.7214* C  11 s( 24.80%)p 3.03( 75.20%)
                                            0.0000  0.4980 -0.0671 -0.6908  0.5199
                ( 47.96%)   0.6925* H  29 s(100.00%)
                                            1.0000
    30. (1.99405) BD ( 1) C  11 - H  30  
                ( 52.00%)   0.7211* C  11 s( 24.92%)p 3.01( 75.08%)
                                            0.0000  0.4992 -0.5727  0.6015  0.2471
                ( 48.00%)   0.6928* H  30 s(100.00%)
                                            1.0000
    31. (1.99426) BD ( 1) C  11 - H  31  
                ( 51.80%)   0.7197* C  11 s( 24.40%)p 3.10( 75.60%)
                                            0.0000  0.4939  0.8028  0.3275  0.0657
                ( 48.20%)   0.6943* H  31 s(100.00%)
                                            1.0000
    32. (1.99997) CR ( 1) C   1           s(100.00%)
                                            1.0000  0.0000 -0.0001  0.0000  0.0001
    33. (1.99997) CR ( 1) C   2           s(100.00%)
                                            1.0000  0.0000  0.0000  0.0000  0.0000
    34. (1.99989) CR ( 1) C   3           s(100.00%)
                                            1.0000  0.0000  0.0000  0.0000  0.0000
    35. (1.99996) CR ( 1) C   4           s(100.00%)
                                            1.0000  0.0000  0.0000 -0.0001  0.0000
    36. (1.99995) CR ( 1) C   5           s(100.00%)
                                            1.0000  0.0000  0.0000  0.0000  0.0000
    37. (1.99996) CR ( 1) C   6           s(100.00%)
                                            1.0000  0.0000  0.0000 -0.0001  0.0000
    38. (1.99995) CR ( 1) C   7           s(100.00%)
                                            1.0000 -0.0001  0.0000  0.0000 -0.0001
    39. (1.99999) CR ( 1) O   8           s(100.00%)
                                            1.0000  0.0000  0.0000  0.0000  0.0000
    40. (1.99996) CR ( 1) C   9           s(100.00%)
                                            1.0000  0.0000  0.0001  0.0000  0.0000
    41. (1.99997) CR ( 1) C  10           s(100.00%)
                                            1.0000  0.0000  0.0001  0.0000  0.0000
    42. (1.99997) CR ( 1) C  11           s(100.00%)
                                            1.0000  0.0000  0.0000  0.0000  0.0001
    43. (1.99282) LP ( 1) O   8           s( 66.35%)p 0.51( 33.65%)
                                            0.0000  0.8146 -0.4218  0.0100  0.3981
    44. (1.97171) LP ( 2) O   8           s(  0.18%)p99.99( 99.82%)
                                            0.0000  0.0421 -0.4740  0.6389 -0.6045
    45. (0.01095) BD*( 1) C   1 - C   2  
                ( 49.34%)   0.7024* C   1 s( 25.82%)p 2.87( 74.18%)
                                           -0.0001 -0.5081 -0.3102  0.3959  0.6992
                ( 50.66%)  -0.7118* C   2 s( 25.29%)p 2.95( 74.71%)
                                            0.0000 -0.5029  0.2597 -0.4198 -0.7095
    46. (0.00499) BD*( 1) C   1 - H  12  
                ( 48.19%)   0.6942* C   1 s( 24.71%)p 3.05( 75.29%)
                                            0.0000 -0.4971  0.5452 -0.6316  0.2382
                ( 51.81%)  -0.7198* H  12 s(100.00%)
                                           -1.0000
    47. (0.00488) BD*( 1) C   1 - H  13  
                ( 48.41%)   0.6958* C   1 s( 24.38%)p 3.10( 75.62%)
                                            0.0000 -0.4938  0.4293  0.5734 -0.4931
                ( 51.59%)  -0.7182* H  13 s(100.00%)
                                           -1.0000
    48. (0.00721) BD*( 1) C   1 - H  14  
                ( 47.57%)   0.6897* C   1 s( 25.08%)p 2.99( 74.92%)
                                            0.0000 -0.5008 -0.6498 -0.3401 -0.4597
                ( 52.43%)  -0.7241* H  14 s(100.00%)
                                           -1.0000
    49. (0.01636) BD*( 1) C   2 - C   6  
                ( 50.46%)   0.7104* C   2 s( 25.17%)p 2.97( 74.83%)
                                            0.0000  0.5017  0.5666 -0.6167  0.2167
                ( 49.54%)  -0.7038* C   6 s( 25.46%)p 2.93( 74.54%)
                                            0.0001  0.5046 -0.5363  0.6490 -0.1912
    50. (0.01671) BD*( 1) C   2 - C   7  
                ( 50.70%)   0.7120* C   2 s( 25.21%)p 2.97( 74.79%)
                                            0.0000  0.5021  0.3706  0.5559 -0.5491
                ( 49.30%)  -0.7022* C   7 s( 25.36%)p 2.94( 74.64%)
                                            0.0001  0.5036 -0.3229 -0.5326  0.5987
    51. (0.01015) BD*( 1) C   2 - H  15  
                ( 49.02%)   0.7001* C   2 s( 24.33%)p 3.11( 75.67%)
                                            0.0000 -0.4933  0.6886  0.3666  0.3848
                ( 50.98%)  -0.7140* H  15 s(100.00%)
                                           -1.0000
    52. (0.03584) BD*( 1) C   3 - C   5  
                ( 49.94%)   0.7067* C   3 s( 26.09%)p 2.83( 73.91%)
                                           -0.0001 -0.5108 -0.5200  0.6471 -0.2236
                ( 50.06%)  -0.7075* C   5 s( 24.82%)p 3.03( 75.18%)
                                            0.0000 -0.4982  0.5164 -0.6789  0.1557
    53. (0.02347) BD*( 1) C   3 - C   7  
                ( 50.03%)   0.7073* C   3 s( 26.32%)p 2.80( 73.68%)
                                            0.0000  0.5130 -0.7912 -0.2883 -0.1664
                ( 49.97%)  -0.7069* C   7 s( 25.26%)p 2.96( 74.74%)
                                            0.0001  0.5026  0.7865  0.2675  0.2394
    54. (0.02254) BD*( 1) C   3 - O   8  
                ( 59.08%)   0.7687* C   3 s( 22.40%)p 3.46( 77.60%)
                                            0.0000  0.4733 -0.0420  0.5711  0.6694
                ( 40.92%)  -0.6397* O   8 s( 16.67%)p 5.00( 83.33%)
                                            0.0000  0.4083  0.1246 -0.5861 -0.6887
    55. (0.02020) BD*( 1) C   3 - H  16  
                ( 49.61%)   0.7044* C   3 s( 25.19%)p 2.97( 74.81%)
                                            0.0000 -0.5019 -0.3191 -0.4147  0.6886
                ( 50.39%)  -0.7098* H  16 s(100.00%)
                                           -1.0000
    56. (0.01611) BD*( 1) C   4 - C   5  
                ( 49.88%)   0.7062* C   4 s( 25.24%)p 2.96( 74.76%)
                                           -0.0001 -0.5024 -0.3399 -0.5105  0.6095
                ( 50.12%)  -0.7080* C   5 s( 25.52%)p 2.92( 74.48%)
                                            0.0000 -0.5052  0.3351  0.4802 -0.6339
    57. (0.01171) BD*( 1) C   4 - C   6  
                ( 49.98%)   0.7070* C   4 s( 25.08%)p 2.99( 74.92%)
                                            0.0000 -0.5008  0.7802  0.2761  0.2535
                ( 50.02%)  -0.7072* C   6 s( 25.31%)p 2.95( 74.69%)
                                            0.0000 -0.5031 -0.7695 -0.3144 -0.2364
    58. (0.01082) BD*( 1) C   4 - H  17  
                ( 48.22%)   0.6944* C   4 s( 24.84%)p 3.03( 75.16%)
                                            0.0000 -0.4984  0.0780 -0.4450 -0.7399
                ( 51.78%)  -0.7196* H  17 s(100.00%)
                                           -1.0000
    59. (0.00886) BD*( 1) C   4 - H  18  
                ( 48.64%)   0.6975* C   4 s( 24.84%)p 3.03( 75.16%)
                                            0.0000 -0.4984 -0.5194  0.6820 -0.1292
                ( 51.36%)  -0.7166* H  18 s(100.00%)
                                           -1.0000
    60. (0.02260) BD*( 1) C   5 - C   9  
                ( 50.14%)   0.7081* C   5 s( 25.65%)p 2.90( 74.35%)
                                            0.0001  0.5065  0.7859  0.2769  0.2215
                ( 49.86%)  -0.7061* C   9 s( 25.48%)p 2.93( 74.52%)
                                            0.0001  0.5047 -0.8096 -0.2631 -0.1434
    61. (0.01182) BD*( 1) C   5 - H  19  
                ( 49.09%)   0.7006* C   5 s( 24.00%)p 3.17( 76.00%)
                                            0.0000 -0.4899 -0.0581  0.4814  0.7245
                ( 50.91%)  -0.7135* H  19 s(100.00%)
                                           -1.0000
    62. (0.00885) BD*( 1) C   6 - H  20  
                ( 48.54%)   0.6967* C   6 s( 25.01%)p 3.00( 74.99%)
                                            0.0000 -0.5001  0.3319  0.4730 -0.6450
                ( 51.46%)  -0.7174* H  20 s(100.00%)
                                           -1.0000
    63. (0.00905) BD*( 1) C   6 - H  21  
                ( 48.82%)   0.6987* C   6 s( 24.22%)p 3.13( 75.78%)
                                            0.0000 -0.4921 -0.1005  0.5062  0.7011
                ( 51.18%)  -0.7154* H  21 s(100.00%)
                                           -1.0000
    64. (0.00880) BD*( 1) C   7 - H  22  
                ( 48.16%)   0.6940* C   7 s( 25.13%)p 2.98( 74.87%)
                                            0.0000 -0.5013  0.5230 -0.6825  0.0965
                ( 51.84%)  -0.7200* H  22 s(100.00%)
                                           -1.0000
    65. (0.00722) BD*( 1) C   7 - H  23  
                ( 48.64%)   0.6975* C   7 s( 24.25%)p 3.12( 75.75%)
                                            0.0000 -0.4925 -0.0599  0.4230  0.7583
                ( 51.36%)  -0.7166* H  23 s(100.00%)
                                           -1.0000
    66. (0.00756) BD*( 1) O   8 - H  24  
                ( 40.40%)   0.6356* O   8 s( 16.80%)p 4.95( 83.20%)
                                            0.0000 -0.4099 -0.7628 -0.4983  0.0430
                ( 59.60%)  -0.7720* H  24 s(100.00%)
                                           -1.0000
    67. (0.00972) BD*( 1) C   9 - C  10  
                ( 50.93%)   0.7137* C   9 s( 24.58%)p 3.07( 75.42%)
                                            0.0000  0.4958  0.5523 -0.6400 -0.1989
                ( 49.07%)  -0.7005* C  10 s( 25.70%)p 2.89( 74.30%)
                                            0.0001  0.5069 -0.5716  0.6106  0.2088
    68. (0.01060) BD*( 1) C   9 - C  11  
                ( 50.82%)   0.7128* C   9 s( 25.50%)p 2.92( 74.50%)
                                            0.0000  0.5050  0.0973  0.2173  0.8297
                ( 49.18%)  -0.7013* C  11 s( 25.89%)p 2.86( 74.11%)
                                            0.0001  0.5088 -0.1517 -0.2319 -0.8151
    69. (0.01160) BD*( 1) C   9 - H  25  
                ( 49.28%)   0.7020* C   9 s( 24.44%)p 3.09( 75.56%)
                                            0.0000 -0.4944 -0.1734 -0.6884  0.5015
                ( 50.72%)  -0.7121* H  25 s(100.00%)
                                           -1.0000
    70. (0.00621) BD*( 1) C  10 - H  26  
                ( 48.14%)   0.6938* C  10 s( 24.94%)p 3.01( 75.06%)
                                            0.0000 -0.4994  0.1371  0.7075 -0.4809
                ( 51.86%)  -0.7201* H  26 s(100.00%)
                                           -1.0000
    71. (0.00524) BD*( 1) C  10 - H  27  
                ( 48.26%)   0.6947* C  10 s( 24.66%)p 3.05( 75.34%)
                                            0.0000 -0.4966  0.0840  0.2038  0.8395
                ( 51.74%)  -0.7193* H  27 s(100.00%)
                                           -1.0000
    72. (0.00512) BD*( 1) C  10 - H  28  
                ( 48.19%)   0.6942* C  10 s( 24.70%)p 3.05( 75.30%)
                                            0.0000 -0.4970 -0.8047 -0.2918 -0.1426
[...]
 Sum      214.3493      -21.7321     236.0814       -26.3000     240.6493

 Contributions to Isotropic shielding for atom    8 (   367.7837 ppm):
                         Standard Origin              Atomic Origin
 NLMO      Total    Paramagnetic  Diamagnetic   Paramagnetic  Diamagnetic
    8       2.0889        1.5359       0.5531         1.4377       0.6513
   10      26.0174       10.8689      15.1485        15.4107      10.6067
   11      -0.6830       -1.1256       0.4426        -1.9341       1.2511
   20      -0.2631       -0.8950       0.6319        -1.1839       0.9209
   22      24.0922       12.7372      11.3550         9.6287      14.4634
   39     271.1821       -0.0049     271.1870        -0.0035     271.1856
   43      34.3297       -1.7944      36.1241        -3.0751      37.4048
   44       9.4950      -28.8739      38.3689       -30.3581      39.8532
 Sum      366.2593       -7.5518     373.8111       -10.0777     376.3370

 Contributions to Isotropic shielding for atom    9 (   213.1317 ppm):
                         Standard Origin              Atomic Origin
 NLMO      Total    Paramagnetic  Diamagnetic   Paramagnetic  Diamagnetic
   10      -0.0001       -0.2117       0.2117        -1.0176       1.0175
   16       5.0991       -9.8383      14.9374        -2.7342       7.8333
   23      -1.9007       -4.2321       2.3314        -9.3779       7.4772
   24      -0.2896       -6.3637       6.0741        -7.9185       7.6290
   25       5.5057       -2.0252       7.5309        -5.2567      10.7624
   26       1.0481       -0.3901       1.4382         0.0126       1.0355
   27       0.7265       -0.6143       1.3407        -0.2926       1.0191
   28       0.6621       -0.3707       1.0328        -0.3629       1.0250
   29       0.8776       -0.2028       1.0803        -0.1386       1.0162
   30       0.6279       -0.5668       1.1947        -0.3749       1.0028
   31       0.5852       -0.2023       0.7875        -0.4439       1.0292
   40     199.9247       -0.0013     199.9260         0.0021     199.9226
 Sum      212.8665      -25.0193     237.8858       -27.9032     240.7698

 Contributions to Isotropic shielding for atom   10 (   220.1593 ppm):
                         Standard Origin              Atomic Origin
 NLMO      Total    Paramagnetic  Diamagnetic   Paramagnetic  Diamagnetic
   17      -0.3237       -0.1281      -0.1956        -1.2798       0.9561
   23       4.7284      -11.7734      16.5017        -3.2415       7.9698
   24      -0.4940        0.1414      -0.6355        -1.2497       0.7556
   25       0.2837        0.1310       0.1527        -0.7461       1.0298
   26       6.2297       -4.3848      10.6146        -4.9346      11.1644
   27       4.9541       -3.9416       8.8957        -6.1234      11.0775
   28       4.3035        1.8982       2.4053        -6.8050      11.1085
   41     200.0754       -0.0040     200.0794         0.0024     200.0730
 Sum      219.7571      -18.0613     237.8185       -24.3777     244.1348

 Contributions to Isotropic shielding for atom   11 (   222.8454 ppm):
                         Standard Origin              Atomic Origin
 NLMO      Total    Paramagnetic  Diamagnetic   Paramagnetic  Diamagnetic
   12      -0.1413       -0.0538      -0.0875        -1.1045       0.9632
   23      -0.3791        0.0447      -0.4238        -1.0923       0.7131
   24       3.7642       -9.2649      13.0291        -4.1421       7.9063
   29       6.5542       -3.7323      10.2865        -4.6491      11.2033
   30       6.6498       -6.1937      12.8435        -4.5321      11.1819
   31       5.4190        2.8393       2.5796        -5.6501      11.0691
   42     200.0751       -0.0025     200.0776         0.0016     200.0735
 Sum      221.9419      -16.3631     238.3049       -21.1686     243.1104

 Contributions to Isotropic shielding for atom   12 (    32.4458 ppm):
                         Standard Origin              Atomic Origin
 NLMO      Total    Paramagnetic  Diamagnetic   Paramagnetic  Diamagnetic
    1       1.2995        0.3924       0.9071         0.2996       0.9999
    2      26.3505        0.1136      26.2369         0.4198      25.9307
    3       1.9145        2.3617      -0.4472         0.0925       1.8220
    4       2.1211        0.5703       1.5508         0.2390       1.8821
    6      -0.1187        0.2195      -0.3382        -1.0098       0.8911
 Sum       31.5668        3.6575      27.9094         0.0411      31.5258

 Contributions to Isotropic shielding for atom   13 (    32.6054 ppm):
                         Standard Origin              Atomic Origin
 NLMO      Total    Paramagnetic  Diamagnetic   Paramagnetic  Diamagnetic
    1       1.2688        0.5107       0.7581         0.2521       1.0167
    2       1.9497        2.3538      -0.4042         0.1033       1.8464
    3      26.4889        0.0875      26.4014         0.4293      26.0596
    4       2.0872        0.6803       1.4069         0.1961       1.8911
 Sum       31.7946        3.6324      28.1622         0.9809      30.8137

 Contributions to Isotropic shielding for atom   14 (    32.0409 ppm):
                         Standard Origin              Atomic Origin
 NLMO      Total    Paramagnetic  Diamagnetic   Paramagnetic  Diamagnetic
    1       1.6014       -1.2462       2.8477         0.7199       0.8815
    2       1.9583        0.9082       1.0501         0.1245       1.8338
    3       1.9597        1.0391       0.9206         0.1122       1.8475
    4      26.0153        0.4094      25.6059         0.3859      25.6293
   43      -0.8588        0.0890      -0.9478         0.4492      -1.3080
 Sum       30.6760        1.1995      29.4765         1.7918      28.8842

 Contributions to Isotropic shielding for atom   15 (    32.4042 ppm):
                         Standard Origin              Atomic Origin
 NLMO      Total    Paramagnetic  Diamagnetic   Paramagnetic  Diamagnetic
    1       0.8038        2.2572      -1.4534        -0.2621       1.0660
    5       1.2282        1.3112      -0.0830         0.2376       0.9906
    6       1.2360        1.3031      -0.0671         0.2296       1.0064
    7      26.6193       -0.3355      26.9548         0.5056      26.1137
   19       0.1283        0.0855       0.0428        -0.9186       1.0470
   21       0.0981        0.0588       0.0393        -0.9849       1.0830
 Sum       30.1138        4.6804      25.4335        -1.1929      31.3067

 Contributions to Isotropic shielding for atom   16 (    32.0123 ppm):
                         Standard Origin              Atomic Origin
 NLMO      Total    Paramagnetic  Diamagnetic   Paramagnetic  Diamagnetic
    8       1.0064        0.3135       0.6929         0.0233       0.9831
    9       0.7006        0.9243      -0.2236        -0.4916       1.1923
   10       0.5257        1.0728      -0.5470        -0.9606       1.4863
   11      26.9352        0.3047      26.6305         0.8324      26.1028
   21       0.1790       -0.4551       0.6341        -0.8776       1.0566
   22       0.0916       -0.6427       0.7342        -0.9779       1.0695
 Sum       29.4385        1.5175      27.9211        -2.4520      31.8906

 Contributions to Isotropic shielding for atom   17 (    32.4316 ppm):
                         Standard Origin              Atomic Origin
 NLMO      Total    Paramagnetic  Diamagnetic   Paramagnetic  Diamagnetic
   10       0.0975       -0.5359       0.6334        -1.1651       1.2626
   12       1.3534        0.0424       1.3110         0.4929       0.8605
   13       1.1299        0.7811       0.3487         0.1672       0.9627
   14      26.2445        0.2073      26.0373         0.3976      25.8469
   15       2.0629        1.2936       0.7693         0.3124       1.7505
   24       0.0325       -0.7717       0.8042        -0.9741       1.0066
   29      -0.1975       -1.2380       1.0405        -1.0547       0.8572
 Sum       30.7231       -0.2211      30.9443        -1.8238      32.5470

 Contributions to Isotropic shielding for atom   18 (    32.6364 ppm):
                         Standard Origin              Atomic Origin
 NLMO      Total    Paramagnetic  Diamagnetic   Paramagnetic  Diamagnetic
   12       1.2641        0.6129       0.6512         0.3237       0.9404
   13       1.0745        1.4056      -0.3311         0.0458       1.0288
   14       2.1700        1.0879       1.0821         0.4092       1.7608
   15      26.4549        0.0401      26.4148         0.4084      26.0465
   19       0.2178       -0.4068       0.6246        -0.7834       1.0012
   26      -0.2888       -1.4480       1.1592        -0.8022       0.5133
 Sum       30.8924        1.2917      29.6007        -0.3985      31.2909

 Contributions to Isotropic shielding for atom   19 (    32.8990 ppm):
                         Standard Origin              Atomic Origin
 NLMO      Total    Paramagnetic  Diamagnetic   Paramagnetic  Diamagnetic
    8       1.3507        0.9841       0.3666         0.3896       0.9611
   12       1.2491        0.7953       0.4537         0.2025       1.0466
   16       1.0618        1.3894      -0.3277         0.0246       1.0372
   17      26.5644        0.0003      26.5641         0.4581      26.1064
   23      -0.0783       -0.7965       0.7182        -1.2139       1.1356
   27      -0.1225       -1.6612       1.5386        -1.0513       0.9287
 Sum       30.0251        0.7115      29.3136        -1.1905      31.2156

 Contributions to Isotropic shielding for atom   20 (    32.4106 ppm):
                         Standard Origin              Atomic Origin
 NLMO      Total    Paramagnetic  Diamagnetic   Paramagnetic  Diamagnetic
    1      -0.0722       -0.1408       0.0686        -1.0793       1.0071
    3      -0.0884       -1.0279       0.9395        -0.9881       0.8998
    5       1.0692        1.2483      -0.1791         0.1532       0.9160
   13       1.2540        0.4928       0.7611         0.2398       1.0141
   18      26.4529        0.0343      26.4186         0.4844      25.9685
   19       2.0024        1.7486       0.2538         0.2746       1.7278
 Sum       30.6179        2.3553      28.2625        -0.9154      31.5332

 Contributions to Isotropic shielding for atom   21 (    32.5977 ppm):
                         Standard Origin              Atomic Origin
 NLMO      Total    Paramagnetic  Diamagnetic   Paramagnetic  Diamagnetic
    5       1.1794        0.8500       0.3295         0.1868       0.9926
   13       1.3662        0.1025       1.2637         0.3991       0.9672
   18       1.9657        1.9083       0.0574         0.1877       1.7780
   19      26.5789        0.1042      26.4747         0.4389      26.1400
 Sum       31.0902        2.9650      28.1252         1.2125      29.8777

 Contributions to Isotropic shielding for atom   22 (    31.9910 ppm):
                         Standard Origin              Atomic Origin
 NLMO      Total    Paramagnetic  Diamagnetic   Paramagnetic  Diamagnetic
    1      -0.0884       -0.1336       0.0452        -1.0818       0.9934
    2      -0.1195       -1.1301       1.0106        -1.0119       0.8925
    6       1.0404        1.2905      -0.2501         0.0215       1.0189
    9       1.2521        0.6058       0.6463         0.3057       0.9465
   10      -0.0265        0.1372      -0.1636        -1.6158       1.5893
   20      26.2201        0.0719      26.1482         0.4917      25.7284
   21       2.0057        1.7514       0.2543         0.2941       1.7116
 Sum       30.2841        2.5931      27.6909        -2.5966      32.8806

 Contributions to Isotropic shielding for atom   23 (    32.4714 ppm):
                         Standard Origin              Atomic Origin
 NLMO      Total    Paramagnetic  Diamagnetic   Paramagnetic  Diamagnetic
    6       1.1617        0.8976       0.2641         0.0916       1.0701
    9       1.4813        0.3403       1.1410         0.5802       0.9011
   20       1.9359        1.8693       0.0666         0.1416       1.7943
   21      26.4700        0.0941      26.3759         0.4395      26.0305
 Sum       31.0490        3.2014      27.8476         1.2529      29.7961

 Contributions to Isotropic shielding for atom   24 (    34.7625 ppm):
                         Standard Origin              Atomic Origin
 NLMO      Total    Paramagnetic  Diamagnetic   Paramagnetic  Diamagnetic
   10       1.5928        2.1217      -0.5289         0.8416       0.7512
   11       0.0304       -0.0624       0.0928        -1.1134       1.1438
   16      -0.0543       -0.2007       0.1463        -1.0390       0.9847
   22      22.9160       -0.6048      23.5208        -0.2143      23.1303
   24      -0.0219       -0.4224       0.4005        -1.0610       1.0391
   43       3.9380        0.8748       3.0632         2.0041       1.9338
   44       5.4504        2.4411       3.0092         2.2270       3.2234
 Sum       33.8514        4.1474      29.7040         1.6451      32.2063

 Contributions to Isotropic shielding for atom   25 (    32.8806 ppm):
                         Standard Origin              Atomic Origin
 NLMO      Total    Paramagnetic  Diamagnetic   Paramagnetic  Diamagnetic
    8      -0.2097        0.1815      -0.3912        -1.2228       1.0132
   10      -0.0538        0.0358      -0.0895        -1.0324       0.9786
   16       1.6599       -0.0419       1.7018         0.6306       1.0294
   23       0.8735        2.1085      -1.2349        -0.1269       1.0005
   24       1.0315        1.4133      -0.3817        -0.0020       1.0336
   25      26.6583       -0.0534      26.7116         0.4346      26.2237
   27       0.2616       -0.7539       1.0155        -0.6859       0.9475
 Sum       30.2214        2.8899      27.3316        -2.0049      32.2264

 Contributions to Isotropic shielding for atom   26 (    32.4480 ppm):
                         Standard Origin              Atomic Origin
 NLMO      Total    Paramagnetic  Diamagnetic   Paramagnetic  Diamagnetic
   12      -0.0584        0.2153      -0.2738        -1.0115       0.9531
   23       1.5749       -1.1485       2.7234         0.6628       0.9121
   24      -0.1212        0.3618      -0.4830        -1.0052       0.8840
   26      26.3057        0.2944      26.0114         0.4112      25.8946
   27       1.9668        0.8846       1.0821         0.1568       1.8100
   28       1.8515        2.0195      -0.1680         0.0245       1.8270
 Sum       31.5192        2.6272      28.8921        -0.7614      32.2806

 Contributions to Isotropic shielding for atom   27 (    32.5646 ppm):
                         Standard Origin              Atomic Origin
 NLMO      Total    Paramagnetic  Diamagnetic   Paramagnetic  Diamagnetic
   23       1.5911       -0.8240       2.4151         0.6067       0.9845
   26       2.0210        0.8449       1.1761         0.1748       1.8462
   27      26.4007        0.2673      26.1334         0.4409      25.9598
   28       1.8593        2.2372      -0.3779         0.0073       1.8520
 Sum       31.8721        2.5253      29.3468         1.2297      30.6424

 Contributions to Isotropic shielding for atom   28 (    32.4869 ppm):
                         Standard Origin              Atomic Origin
 NLMO      Total    Paramagnetic  Diamagnetic   Paramagnetic  Diamagnetic
   23       1.2638        0.2051       1.0587         0.2656       0.9982
   24      -0.1803        0.7764      -0.9567        -1.1990       1.0187
   26       1.9582        1.7012       0.2570         0.1068       1.8514
   27       1.8810        1.9484      -0.0674         0.0386       1.8424
   28      26.3925        0.0467      26.3457         0.4724      25.9200
 Sum       31.3152        4.6779      26.6373        -0.3157      31.6308

 Contributions to Isotropic shielding for atom   29 (    32.6094 ppm):
                         Standard Origin              Atomic Origin
 NLMO      Total    Paramagnetic  Diamagnetic   Paramagnetic  Diamagnetic
   12      -0.0740        0.0484      -0.1224        -1.0803       1.0063
   23      -0.1376        0.1193      -0.2569        -1.0888       0.9513
   24       1.4252       -0.3616       1.7868         0.5079       0.9173
   29      26.2081        0.2133      25.9948         0.3900      25.8181
   30       2.1179        0.3317       1.7862         0.2838       1.8341
   31       1.9343        2.1060      -0.1717         0.0877       1.8466
 Sum       31.4739        2.4573      29.0167        -0.8997      32.3737

 Contributions to Isotropic shielding for atom   30 (    32.6580 ppm):
                         Standard Origin              Atomic Origin
 NLMO      Total    Paramagnetic  Diamagnetic   Paramagnetic  Diamagnetic
   22      -0.2449       -0.6681       0.4233        -1.1614       0.9165
   24       1.5354       -0.7957       2.3311         0.5574       0.9780
   29       2.1044        0.4493       1.6551         0.2529       1.8515
   30      26.2615        0.3286      25.9329         0.3779      25.8836
   31       1.9537        1.7456       0.2080         0.0899       1.8638
 Sum       31.6100        1.0597      30.5503         0.1167      31.4933

 Contributions to Isotropic shielding for atom   31 (    32.6450 ppm):
                         Standard Origin              Atomic Origin
 NLMO      Total    Paramagnetic  Diamagnetic   Paramagnetic  Diamagnetic
   23      -0.1317        0.5615      -0.6932        -1.0883       0.9566
   24       1.1276        0.8771       0.2505         0.0985       1.0291
   28      -0.1000       -1.0947       0.9947        -0.9772       0.8772
   29       2.0026        1.8149       0.1877         0.1281       1.8745
   30       2.0416        1.3518       0.6898         0.1717       1.8699
   31      26.3642       -0.0143      26.3785         0.4208      25.9434
 Sum       31.3043        3.4964      27.8080        -1.2464      32.5508
 
 1\1\GINC-COMPUTE-10-5\SP\RHF\STO-3G\C10H20O1\YTSAI.IQUIR\03-Aug-2021\0
 \\# rhf/STO-3G nmr pop=nbo\\comment\\0,1\C,0,2.243943639,0.871198676,-
 1.924988847\C,0,0.746679898,0.708560138,-2.199615532\C,0,0.116318379,-
 1.257413544,-0.642680856\C,0,-0.196442882,1.143262381,0.134685474\C,0,
 -0.74300591,-0.293771434,0.207603828\C,0,-0.095902461,1.631253275,-1.3
 10682784\C,0,0.276982334,-0.751445898,-2.081933544\O,0,1.406442261,-1.
 46060904,-0.083176137\C,0,-0.965228192,-0.798683275,1.665029748\C,0,-2
 .306086723,-0.285866876,2.210526049\C,0,0.139031519,-0.428889998,2.661
 28491\H,0,2.829835528,0.203423312,-2.565332934\H,0,2.560414335,1.89741
 1625,-2.141883173\H,0,2.508547936,0.661421671,-0.885621748\H,0,0.59082
 332,1.018278252,-3.241857514\H,0,-0.372067489,-2.2390158,-0.685242993\
 H,0,0.790734491,1.207849201,0.605215896\H,0,-0.854942899,1.823602724,0
 .686723937\H,0,-1.730097962,-0.282364001,-0.278709361\H,0,0.311293259,
 2.649252336,-1.32686402\H,0,-1.108514239,1.69684037,-1.729668698\H,0,0
 .971146989,-1.401356734,-2.628955468\H,0,-0.696560246,-0.834664066,-2.
 582979961\H,0,1.311091952,-2.091257218,0.650211688\H,0,-1.036499441,-1
 .894030178,1.636611715\H,0,-2.321491679,0.806332102,2.283300422\H,0,-3
 .134395437,-0.595909401,1.564644311\H,0,-2.498730565,-0.692187985,3.20
 9463915\H,0,0.169929015,0.649556906,2.849282787\H,0,1.128287953,-0.741
 344246,2.321034446\H,0,-0.041536685,-0.919433272,3.624574443\\Version=
 EM64L-G09RevC.01\State=1-A\HF=-459.6172972\RMSD=7.230e-09\Dipole=-0.46
 08917,-0.2148356,0.1774948\Quadrupole=-2.1663349,1.6163434,0.5499915,0
 .5286046,0.8934841,-0.935915\PG=C01 [X(C10H20O1)]\\@


 Human beings, who are almost unique in having the
 ability to learn from the experience of others, are
 also remarkable for their apparent disinclination to do so.
                               -- Douglas Adams,
                                Last Chance to See
 Job cpu time:  0 days  0 hours  0 minutes 24.4 seconds.
 File lengths (MBytes):  RWF=      5 Int=      0 D2E=      0 Chk=      1 Scr=      1
 Normal termination of Gaussian 09 at Tue Aug  3 16:34:46 2021.
