 Entering Gaussian System, Link 0=g09
 Input=/home/ytsai.iquir/menthol/02_menthol_M0082_MMFF_NMR_rhf_STO-3G_nbo.gjc
 Output=/home/ytsai.iquir/menthol/02_menthol_M0082_MMFF_NMR_rhf_STO-3G_nbo.log
 Initial command:
 /share/apps/Gaussian09/EM64T.SSE4.2-enabled/g09/l1.exe /tmp/Gau-21407.inp -scrdir=/tmp/
 Entering Link 1 = /share/apps/Gaussian09/EM64T.SSE4.2-enabled/g09/l1.exe PID=     21408.
  
 Copyright (c) 1988,1990,1992,1993,1995,1998,2003,2009,2011,
            Gaussian, Inc.  All Rights Reserved.
  
 This is part of the Gaussian(R) 09 program.  It is based on
 the Gaussian(R) 03 system (copyright 2003, Gaussian, Inc.),
 the Gaussian(R) 98 system (copyright 1998, Gaussian, Inc.),
 the Gaussian(R) 94 system (copyright 1995, Gaussian, Inc.),
 the Gaussian 92(TM) system (copyright 1992, Gaussian, Inc.),
 the Gaussian 90(TM) system (copyright 1990, Gaussian, Inc.),
 the Gaussian 88(TM) system (copyright 1988, Gaussian, Inc.),
 the Gaussian 86(TM) system (copyright 1986, Carnegie Mellon
 University), and the Gaussian 82(TM) system (copyright 1983,
 Carnegie Mellon University). Gaussian is a federally registered
 trademark of Gaussian, Inc.
  
 This software contains proprietary and confidential information,
 including trade secrets, belonging to Gaussian, Inc.
  
 This software is provided under written license and may be
 used, copied, transmitted, or stored only in accord with that
 written license.
  
 The following legend is applicable only to US Government
 contracts under FAR:
  
                    RESTRICTED RIGHTS LEGEND
  
 Use, reproduction and disclosure by the US Government is
 subject to restrictions as set forth in subparagraphs (a)
 and (c) of the Commercial Computer Software - Restricted
 Rights clause in FAR 52.227-19.
  
 Gaussian, Inc.
 340 Quinnipiac St., Bldg. 40, Wallingford CT 06492
  
  
 ---------------------------------------------------------------
 Warning -- This program may not be used in any manner that
 competes with the business of Gaussian, Inc. or will provide
 assistance to any competitor of Gaussian, Inc.  The licensee
 of this program is prohibited from giving any competitor of
 Gaussian, Inc. access to this program.  By using this program,
 the user acknowledges that Gaussian, Inc. is engaged in the
 business of creating and licensing software in the field of
 computational chemistry and represents and warrants to the
 licensee that it is not a competitor of Gaussian, Inc. and that
 it will not use this program in any manner prohibited above.
 ---------------------------------------------------------------
  

 Cite this work as:
 Gaussian 09, Revision C.01,
 M. J. Frisch, G. W. Trucks, H. B. Schlegel, G. E. Scuseria, 
 M. A. Robb, J. R. Cheeseman, G. Scalmani, V. Barone, B. Mennucci, 
 G. A. Petersson, H. Nakatsuji, M. Caricato, X. Li, H. P. Hratchian, 
 A. F. Izmaylov, J. Bloino, G. Zheng, J. L. Sonnenberg, M. Hada, 
 M. Ehara, K. Toyota, R. Fukuda, J. Hasegawa, M. Ishida, T. Nakajima, 
 Y. Honda, O. Kitao, H. Nakai, T. Vreven, J. A. Montgomery, Jr., 
 J. E. Peralta, F. Ogliaro, M. Bearpark, J. J. Heyd, E. Brothers, 
 K. N. Kudin, V. N. Staroverov, T. Keith, R. Kobayashi, J. Normand, 
 K. Raghavachari, A. Rendell, J. C. Burant, S. S. Iyengar, J. Tomasi, 
 M. Cossi, N. Rega, J. M. Millam, M. Klene, J. E. Knox, J. B. Cross, 
 V. Bakken, C. Adamo, J. Jaramillo, R. Gomperts, R. E. Stratmann, 
 O. Yazyev, A. J. Austin, R. Cammi, C. Pomelli, J. W. Ochterski, 
 R. L. Martin, K. Morokuma, V. G. Zakrzewski, G. A. Voth, 
 P. Salvador, J. J. Dannenberg, S. Dapprich, A. D. Daniels, 
 O. Farkas, J. B. Foresman, J. V. Ortiz, J. Cioslowski, 
 and D. J. Fox, Gaussian, Inc., Wallingford CT, 2010.
 
 ******************************************
 Gaussian 09:  EM64L-G09RevC.01 23-Sep-2011
                 3-Aug-2021 
 ******************************************
 %nprocshared=4
 Will use up to    4 processors via shared memory.
 ------------------------
 # rhf/STO-3G nmr pop=nbo
 ------------------------
 1/38=1/1;
 2/12=2,17=6,18=5,40=1/2;
 3/6=3,11=1,16=1,25=1,30=1,116=1/1,2,8,3;
 4//1;
 5/5=2,38=5/2;
 8/6=1,10=90,11=11/1;
 10/13=100,45=16/2;
 6/7=2,8=2,9=2,10=2,28=1,64=1/1,7;
 99/9=1/99;
 -------
 comment
 -------
 Charge =  0 Multiplicity = 1
 Symbolic Z-Matrix:
 6                    -1.97648  -0.87881  -2.50538 
 6                    -1.98186  -0.43574  -1.04118 
 6                     0.08149  -1.12124   0.32224 
 6                    -0.92666   1.24098   0.53622 
 6                     0.08701   0.21659   1.10166 
 6                    -1.33624   0.95163  -0.90264 
 6                    -1.33664  -1.49143  -0.12085 
 8                     0.927    -1.0758   -0.81914 
 6                     1.48464   0.85186   1.36568 
 6                     2.17108   1.47268   0.14501 
 6                     2.43747  -0.13329   2.05045 
 1                    -2.51064  -1.82721  -2.62607 
 1                    -2.47308  -0.13444  -3.13691 
 1                    -0.95687  -1.01461  -2.88024 
 1                    -3.03535  -0.35048  -0.74131 
 1                     0.46831  -1.91302   0.97449 
 1                    -0.55025   2.26645   0.62091 
 1                    -1.8315    1.2123    1.15895 
 1                    -0.30365  -0.0312    2.10156 
 1                    -0.4593    1.0403   -1.55533 
 1                    -2.04625   1.71562  -1.2425 
 1                    -1.33089  -2.46983  -0.61653 
 1                    -1.96052  -1.60294   0.77577 
 1                     0.89507  -1.94909  -1.24544 
 1                     1.32019   1.67322   2.07783 
 1                     3.05359   2.04065   0.4618 
 1                     2.51901   0.71988  -0.56664 
 1                     1.51546   2.16914  -0.38428 
 1                     3.3552    0.37536   2.36537 
 1                     2.72513  -0.95143   1.38256 
 1                     1.97555  -0.56612   2.94394 
 
                          Input orientation:                          
 ---------------------------------------------------------------------
 Center     Atomic      Atomic             Coordinates (Angstroms)
 Number     Number       Type             X           Y           Z
 ---------------------------------------------------------------------
      1          6           0       -1.976482   -0.878809   -2.505382
      2          6           0       -1.981862   -0.435737   -1.041184
      3          6           0        0.081488   -1.121237    0.322243
      4          6           0       -0.926655    1.240980    0.536216
      5          6           0        0.087008    0.216595    1.101659
      6          6           0       -1.336242    0.951633   -0.902640
      7          6           0       -1.336636   -1.491431   -0.120846
      8          8           0        0.927000   -1.075805   -0.819145
      9          6           0        1.484641    0.851861    1.365679
     10          6           0        2.171080    1.472678    0.145008
     11          6           0        2.437466   -0.133287    2.050449
     12          1           0       -2.510638   -1.827207   -2.626067
     13          1           0       -2.473081   -0.134440   -3.136910
     14          1           0       -0.956875   -1.014608   -2.880243
     15          1           0       -3.035351   -0.350476   -0.741308
     16          1           0        0.468311   -1.913016    0.974494
     17          1           0       -0.550254    2.266450    0.620911
     18          1           0       -1.831501    1.212297    1.158950
     19          1           0       -0.303648   -0.031198    2.101563
     20          1           0       -0.459302    1.040298   -1.555325
     21          1           0       -2.046245    1.715616   -1.242496
     22          1           0       -1.330889   -2.469832   -0.616533
     23          1           0       -1.960522   -1.602936    0.775772
     24          1           0        0.895067   -1.949088   -1.245441
     25          1           0        1.320188    1.673220    2.077829
     26          1           0        3.053586    2.040650    0.461798
     27          1           0        2.519008    0.719875   -0.566639
     28          1           0        1.515464    2.169142   -0.384280
     29          1           0        3.355197    0.375358    2.365371
     30          1           0        2.725132   -0.951427    1.382562
     31          1           0        1.975549   -0.566122    2.943935
 ---------------------------------------------------------------------
                    Distance matrix (angstroms):
                    1          2          3          4          5
     1  C    0.000000
     2  C    1.529777   0.000000
     3  C    3.505635   2.566370   0.000000
     4  C    3.853175   2.532396   2.577247   0.000000
     5  C    4.297516   3.049186   1.548326   1.548097   0.000000
     6  C    2.515791   1.536494   2.794116   1.523742   2.565762
     7  C    2.543762   1.542021   1.531158   2.840049   2.537446
     8  O    3.363393   2.986715   1.421169   3.261983   2.462797
     9  C    5.473546   4.412203   2.636420   2.579491   1.557770
    10  C    5.454936   4.721867   3.335596   3.130925   2.614628
    11  C    6.387044   5.401863   3.084376   3.936854   2.558763
    12  H    1.095147   2.174316   3.988740   4.682180   4.982052
    13  H    1.095228   2.173510   4.411953   4.216048   4.964146
    14  H    1.094788   2.183536   3.368306   4.093993   4.296638
    15  H    2.124217   1.098651   3.382292   2.934518   3.669772
    16  H    4.376772   3.499808   1.096347   3.476450   2.167211
    17  H    4.658378   3.480499   3.459006   1.095646   2.199801
    18  H    4.221501   2.753037   3.131291   1.098802   2.162263
    19  H    4.974009   3.585654   2.121908   2.111134   1.101736
    20  H    2.624388   2.182020   2.913751   2.152495   2.834873
    21  H    2.886310   2.161710   3.876002   2.154664   3.506123
    22  H    2.552625   2.177530   2.166753   3.906707   3.489915
    23  H    3.360147   2.159662   2.146515   3.035478   2.758491
    24  H    3.313419   3.257095   1.950610   4.082830   3.294240
    25  H    6.195700   5.007941   3.524975   2.758932   2.143687
    26  H    6.529088   5.809233   4.341702   4.060460   3.540789
    27  H    5.150140   4.671024   3.181400   3.655192   2.991844
    28  H    5.097329   4.410012   3.658149   2.769972   2.839180
    29  H    7.329664   6.383313   4.139002   4.735966   3.507597
    30  H    6.101357   5.319424   2.853413   4.342637   2.898772
    31  H    6.738797   5.617765   3.281599   4.181569   2.751948
                    6          7          8          9         10
     6  C    0.000000
     7  C    2.565104   0.000000
     8  O    3.039694   2.405081   0.000000
     9  C    3.621133   3.957319   2.966532   0.000000
    10  C    3.697345   4.600075   2.995345   1.531878   0.000000
    11  C    4.913110   4.561021   3.377042   1.532091   2.506151
    12  H    3.474386   2.786963   3.955621   6.250896   6.362907
    13  H    2.732017   3.497081   4.221227   6.075332   5.909488
    14  H    2.814415   2.825925   2.793001   5.241427   5.012268
    15  H    2.146739   2.138314   4.028944   5.129847   5.587161
    16  H    3.871208   2.152983   2.031861   2.971615   3.879484
    17  H    2.160493   3.910277   3.927684   2.587767   2.874406
    18  H    2.136207   3.031981   4.093605   3.342072   4.137212
    19  H    3.325273   2.852796   3.337100   2.125864   3.494858
    20  H    1.096761   3.039259   2.634708   3.513785   3.161802
    21  H    1.096940   3.470849   4.100177   4.473903   4.446349
    22  H    3.433410   1.096817   2.661283   4.784351   5.327956
    23  H    3.119714   1.097994   3.340571   4.271202   5.189161
    24  H    3.675654   2.540602   0.972302   3.874385   3.907690
    25  H    4.057154   4.680587   4.013002   1.099469   2.121327
    26  H    4.724219   5.664726   3.984404   2.166059   1.096251
    27  H    3.876797   4.467056   2.413030   2.195720   1.092798
    28  H    3.143764   4.647974   3.326421   2.190556   1.093178
    29  H    5.746441   5.628452   4.259478   2.173803   2.745225
    30  H    5.033740   4.364607   2.845393   2.188824   2.777553
    31  H    5.297894   4.606479   3.939544   2.177742   3.468275
                   11         12         13         14         15
    11  C    0.000000
    12  H    7.015904   0.000000
    13  H    7.142980   1.768568   0.000000
    14  H    6.050619   1.771752   1.771851   0.000000
    15  H    6.147585   2.451199   2.470168   3.055516   0.000000
    16  H    2.864033   4.673922   5.358989   4.206815   4.202518
    17  H    4.090084   5.580681   4.856208   4.815470   3.857415
    18  H    4.563928   4.901650   4.547498   4.694588   2.739068
    19  H    2.743491   5.517875   5.670864   5.119785   3.955509
    20  H    4.771810   3.684706   2.817220   2.495120   3.038570
    21  H    5.862218   3.831648   2.682107   3.364976   2.344836
    22  H    5.174237   2.417230   3.620906   2.716974   2.722578
    23  H    4.809050   3.453323   4.210497   3.836651   2.241751
    24  H    4.066819   3.676930   4.267906   2.641121   4.272926
    25  H    2.124271   7.003917   6.697016   6.082097   5.568985
    26  H    2.762140   7.446867   6.944478   6.048772   6.651324
    27  H    2.753848   6.002184   5.679534   4.521389   5.659246
    28  H    3.475510   6.099666   5.365814   4.741155   5.214006
    29  H    1.095503   8.010854   8.031427   6.931265   7.142646
    30  H    1.094612   6.652022   6.936463   5.633176   6.168884
    31  H    1.095003   7.262310   7.546744   6.536154   6.223877
                   16         17         18         19         20
    16  H    0.000000
    17  H    4.316298   0.000000
    18  H    3.884680   1.744224   0.000000
    19  H    2.325391   2.744509   2.183834   0.000000
    20  H    3.997813   2.499545   3.046277   3.813812   0.000000
    21  H    4.940143   2.452284   2.463004   4.155808   1.752800
    22  H    2.465468   4.957118   4.118377   3.793442   3.736577
    23  H    2.456597   4.121284   2.844118   2.640703   3.830713
    24  H    2.260870   4.831457   4.817636   4.039511   3.296478
    25  H    3.847613   2.443989   3.315106   2.354240   4.094750
    26  H    4.751629   3.614411   5.003625   4.272284   4.172514
    27  H    3.675944   3.636280   4.706066   3.956109   3.154441
    28  H    4.427958   2.299363   3.807793   3.785510   2.558385
    29  H    3.937677   4.676742   5.390525   3.690804   5.510390
    30  H    2.486848   4.654352   5.049218   3.246119   4.768518
    31  H    2.822161   4.449673   4.565367   2.488067   5.362129
                   21         22         23         24         25
    21  H    0.000000
    22  H    4.292032   0.000000
    23  H    3.885041   1.756832   0.000000
    24  H    4.699083   2.370987   3.515609   0.000000
    25  H    4.728555   5.608268   4.815766   4.934162   0.000000
    26  H    5.386887   6.382074   6.206092   4.846842   2.398172
    27  H    4.721210   4.999842   5.221466   3.197080   3.056017
    28  H    3.691612   5.447545   5.258971   4.252799   2.519137
    29  H    6.632389   6.240694   5.890445   4.949065   2.430718
    30  H    6.063834   4.770036   4.769487   3.354231   3.057128
    31  H    6.237577   5.218581   4.611786   4.542126   2.488833
                   26         27         28         29         30
    26  H    0.000000
    27  H    1.757243   0.000000
    28  H    1.760164   1.772210   0.000000
    29  H    2.547108   3.068319   3.763357   0.000000
    30  H    3.147732   2.575873   3.784571   1.767272   0.000000
    31  H    3.757450   3.777997   4.332478   1.767639   1.774322
                   31
    31  H    0.000000
 Stoichiometry    C10H20O
 Framework group  C1[X(C10H20O)]
 Deg. of freedom    87
 Full point group                 C1      NOp   1
 Largest Abelian subgroup         C1      NOp   1
 Largest concise Abelian subgroup C1      NOp   1
                         Standard orientation:                         
 ---------------------------------------------------------------------
 Center     Atomic      Atomic             Coordinates (Angstroms)
 Number     Number       Type             X           Y           Z
 ---------------------------------------------------------------------
      1          6           0        3.185026   -0.179299    0.801903
      2          6           0        2.232983    0.212680   -0.329550
      3          6           0        0.005357   -1.060561   -0.382393
      4          6           0        0.089712    1.484695   -0.778322
      5          6           0       -0.776577    0.202330   -0.819427
      6          6           0        1.312364    1.356958    0.122008
      7          6           0        1.455306   -1.003762   -0.871134
      8          8           0       -0.002147   -1.229497    1.028680
      9          6           0       -2.171467    0.409693   -0.157667
     10          6           0       -2.149573    0.839334    1.312564
     11          6           0       -3.069126   -0.820634   -0.324420
     12          1           0        3.901596   -0.934643    0.462301
     13          1           0        3.755681    0.689794    1.146221
     14          1           0        2.642233   -0.589270    1.659726
     15          1           0        2.857888    0.585544   -1.152654
     16          1           0       -0.480361   -1.944530   -0.812107
     17          1           0       -0.502095    2.359429   -0.486697
     18          1           0        0.439742    1.698658   -1.797668
     19          1           0       -0.991571    0.051827   -1.889450
     20          1           0        0.986767    1.209107    1.158835
     21          1           0        1.875256    2.298406    0.111780
     22          1           0        1.976492   -1.931871   -0.606584
     23          1           0        1.448331   -0.955157   -1.968029
     24          1           0        0.482524   -2.047780    1.230861
     25          1           0       -2.656328    1.227059   -0.710527
     26          1           0       -3.157962    1.126723    1.632447
     27          1           0       -1.824422    0.035763    1.977965
     28          1           0       -1.502785    1.705097    1.477365
     29          1           0       -4.089369   -0.600055    0.008108
     30          1           0       -2.706528   -1.670824    0.261989
     31          1           0       -3.121939   -1.125894   -1.374686
 ---------------------------------------------------------------------
 Rotational constants (GHZ):      1.9072108      0.7426658      0.6895513
 Standard basis: STO-3G (5D, 7F)
 There are    75 symmetry adapted basis functions of A   symmetry.
 Integral buffers will be    131072 words long.
 Raffenetti 1 integral format.
 Two-electron integral symmetry is turned on.
    75 basis functions,   225 primitive gaussians,    75 cartesian basis functions
    44 alpha electrons       44 beta electrons
       nuclear repulsion energy       705.7941484965 Hartrees.
 NAtoms=   31 NActive=   31 NUniq=   31 SFac= 1.00D+00 NAtFMM=   60 NAOKFM=F Big=F
 One-electron integrals computed using PRISM.
 NBasis=    75 RedAO= T  NBF=    75
 NBsUse=    75 1.00D-06 NBFU=    75
 Harris functional with IExCor=  205 diagonalized for initial guess.
 ExpMin= 1.69D-01 ExpMax= 1.31D+02 ExpMxC= 1.31D+02 IAcc=1 IRadAn=         1 AccDes= 0.00D+00
 HarFok:  IExCor=  205 AccDes= 0.00D+00 IRadAn=         1 IDoV= 1
 ScaDFX=  1.000000  1.000000  1.000000  1.000000
 FoFCou: FMM=F IPFlag=           0 FMFlag=      100000 FMFlg1=           0
         NFxFlg=           0 DoJE=T BraDBF=F KetDBF=T FulRan=T
         Omega=  0.000000  0.000000  1.000000  0.000000  0.000000 ICntrl=     500 IOpCl=  0
         NMat0=    1 NMatS0=    1 NMatT0=    0 NMatD0=    1 NMtDS0=    0 NMtDT0=    0
         I1Cent=           4 NGrid=           0.
 Petite list used in FoFCou.
 Initial guess orbital symmetries:
       Occupied  (A) (A) (A) (A) (A) (A) (A) (A) (A) (A) (A) (A)
                 (A) (A) (A) (A) (A) (A) (A) (A) (A) (A) (A) (A)
                 (A) (A) (A) (A) (A) (A) (A) (A) (A) (A) (A) (A)
                 (A) (A) (A) (A) (A) (A) (A) (A)
       Virtual   (A) (A) (A) (A) (A) (A) (A) (A) (A) (A) (A) (A)
                 (A) (A) (A) (A) (A) (A) (A) (A) (A) (A) (A) (A)
                 (A) (A) (A) (A) (A) (A) (A)
 The electronic state of the initial guess is 1-A.
 Requested convergence on RMS density matrix=1.00D-08 within 128 cycles.
 Requested convergence on MAX density matrix=1.00D-06.
 Requested convergence on             energy=1.00D-06.
 No special actions if energy rises.
 Keep R1 ints in memory in canonical form, NReq=4898789.
 SCF Done:  E(RHF) =  -459.608925748     A.U. after   10 cycles
             Convg  =    0.6399D-08             -V/T =  2.0089
 Range of M.O.s used for correlation:     1    75
 NBasis=    75 NAE=    44 NBE=    44 NFC=     0 NFV=     0
 NROrb=     75 NOA=    44 NOB=    44 NVA=    31 NVB=    31
          Differentiating once with respect to magnetic field using GIAOs.
          Electric field/nuclear overlap derivatives assumed to be zero.
          Keep R3 ints in memory in canonical form, NReq=4863575.
 FoFCou: FMM=F IPFlag=           0 FMFlag=           0 FMFlg1=           0
         NFxFlg=           0 DoJE=F BraDBF=F KetDBF=T FulRan=T
         Omega=  0.000000  0.000000  1.000000  0.000000  0.000000 ICntrl=    6100 IOpCl=  0
         NMat0=    1 NMatS0=    1 NMatT0=    0 NMatD0=    1 NMtDS0=    0 NMtDT0=    0
         I1Cent=           7 NGrid=          31.
 Symmetry not used in FoFCou.
          There are     3 degrees of freedom in the 1st order CPHF.  IDoFFX=0.
      3 vectors produced by pass  0 Test12= 4.55D-14 3.33D-08 XBig12= 6.80D+00 5.10D-01.
 AX will form     3 AO Fock derivatives at one time.
      3 vectors produced by pass  1 Test12= 4.55D-14 3.33D-08 XBig12= 9.75D-03 1.24D-02.
      3 vectors produced by pass  2 Test12= 4.55D-14 3.33D-08 XBig12= 7.51D-05 2.96D-03.
      3 vectors produced by pass  3 Test12= 4.55D-14 3.33D-08 XBig12= 1.83D-06 4.28D-04.
      3 vectors produced by pass  4 Test12= 4.55D-14 3.33D-08 XBig12= 2.62D-08 5.02D-05.
      3 vectors produced by pass  5 Test12= 4.55D-14 3.33D-08 XBig12= 3.20D-10 2.87D-06.
      3 vectors produced by pass  6 Test12= 4.55D-14 3.33D-08 XBig12= 2.38D-12 2.07D-07.
 Inverted reduced A of dimension    21 with in-core refinement.
 Calculating GIAO nuclear magnetic shielding tensors.
 SCF GIAO Magnetic shielding tensor (ppm):
      1  C    Isotropic =   220.0327   Anisotropy =    27.5802
   XX=   225.0646   YX=    -5.6956   ZX=    11.6201
   XY=    -4.6167   YY=   213.4444   ZY=    -2.7612
   XZ=    16.2567   YZ=    -0.9634   ZZ=   221.5890
   Eigenvalues:   208.3189   213.3596   238.4194
      2  C    Isotropic =   216.0791   Anisotropy =     7.8322
   XX=   220.1328   YX=    -0.1581   ZX=     3.5327
   XY=    -2.0309   YY=   217.7707   ZY=     2.2947
   XZ=     3.5458   YZ=     2.7883   ZZ=   210.3337
   Eigenvalues:   208.3804   218.5563   221.3006
      3  C    Isotropic =   188.9421   Anisotropy =    37.6528
   XX=   179.0419   YX=    -5.7820   ZX=    -1.0366
   XY=    -5.0334   YY=   174.9520   ZY=    -5.7762
   XZ=     1.1708   YZ=    -7.8187   ZZ=   212.8323
   Eigenvalues:   170.4652   182.3171   214.0439
      4  C    Isotropic =   217.3422   Anisotropy =    16.5443
   XX=   223.2413   YX=     6.1447   ZX=     3.4376
   XY=     5.6456   YY=   221.4178   ZY=    -1.7337
   XZ=     1.1865   YZ=     0.2136   ZZ=   207.3676
   Eigenvalues:   206.8386   216.8163   228.3718
      5  C    Isotropic =   210.8119   Anisotropy =    15.5884
   XX=   220.4300   YX=     2.4396   ZX=    -3.8440
   XY=    -2.5272   YY=   209.4550   ZY=    -3.0364
   XZ=    -3.6599   YZ=    -2.0857   ZZ=   202.5507
   Eigenvalues:   201.0401   210.1914   221.2041
      6  C    Isotropic =   217.4344   Anisotropy =    16.8253
   XX=   221.8445   YX=    -6.5314   ZX=     4.8374
   XY=    -9.7344   YY=   218.1984   ZY=     0.1691
   XZ=     2.1927   YZ=     1.6829   ZZ=   212.2602
   Eigenvalues:   208.9283   214.7236   228.6512
      7  C    Isotropic =   214.8092   Anisotropy =    12.8899
   XX=   221.6225   YX=     3.2978   ZX=    -0.9640
   XY=     2.4497   YY=   218.0180   ZY=     0.8539
   XZ=     3.3513   YZ=     2.5777   ZZ=   204.7873
   Eigenvalues:   204.5274   216.4978   223.4025
      8  O    Isotropic =   358.1466   Anisotropy =    99.5402
   XX=   359.7864   YX=   -37.5150   ZX=    14.8428
   XY=   -43.0885   YY=   394.6873   ZY=   -28.5666
   XZ=    -6.7043   YZ=   -10.7528   ZZ=   319.9660
   Eigenvalues:   313.9039   336.0291   424.5067
      9  C    Isotropic =   211.6136   Anisotropy =    18.4138
   XX=   222.4380   YX=     1.6277   ZX=    -3.1917
   XY=     1.3995   YY=   207.4033   ZY=     3.4911
   XZ=    -7.0360   YZ=    -0.0429   ZZ=   204.9995
   Eigenvalues:   202.6987   208.2526   223.8895
     10  C    Isotropic =   223.4388   Anisotropy =    21.4356
   XX=   218.4792   YX=    -1.1927   ZX=    -1.3308
   XY=    -0.8604   YY=   217.4219   ZY=     6.6289
   XZ=    -0.3146   YZ=     9.5806   ZZ=   234.4154
   Eigenvalues:   214.0799   218.5074   237.7292
     11  C    Isotropic =   221.4332   Anisotropy =    25.3554
   XX=   224.4027   YX=    11.5836   ZX=     3.5486
   XY=    13.3591   YY=   225.0744   ZY=     6.1477
   XZ=     0.8943   YZ=     3.8246   ZZ=   214.8226
   Eigenvalues:   211.0012   214.9616   238.3369
     12  H    Isotropic =    32.5814   Anisotropy =    13.9370
   XX=    37.4904   YX=    -6.4168   ZX=     0.4828
   XY=    -6.5719   YY=    32.2465   ZY=     1.2958
   XZ=     0.7051   YZ=     0.7888   ZZ=    28.0072
   Eigenvalues:    26.7374    29.1340    41.8727
     13  H    Isotropic =    32.3950   Anisotropy =    14.1035
   XX=    35.2155   YX=     4.6261   ZX=     5.3397
   XY=     4.4476   YY=    32.5513   ZY=     2.9501
   XZ=     5.6167   YZ=     3.3317   ZZ=    29.4182
   Eigenvalues:    26.0886    29.2991    41.7973
     14  H    Isotropic =    32.5408   Anisotropy =     9.0663
   XX=    32.1306   YX=     1.2077   ZX=     0.2635
   XY=     0.6277   YY=    28.7494   ZY=    -4.3149
   XZ=     0.3574   YZ=    -4.1964   ZZ=    36.7426
   Eigenvalues:    26.7351    32.3024    38.5850
     15  H    Isotropic =    32.4139   Anisotropy =    14.0768
   XX=    34.5658   YX=     3.1157   ZX=    -6.0572
   XY=     3.0877   YY=    28.6619   ZY=    -2.9545
   XZ=    -6.0341   YZ=    -3.2169   ZZ=    34.0139
   Eigenvalues:    27.1986    28.2446    41.7984
     16  H    Isotropic =    31.8672   Anisotropy =    10.4378
   XX=    32.2395   YX=     2.4622   ZX=     1.0582
   XY=     3.0060   YY=    35.5122   ZY=     3.7036
   XZ=     2.4882   YZ=     4.3892   ZZ=    27.8500
   Eigenvalues:    26.0518    30.7241    38.8258
     17  H    Isotropic =    32.3515   Anisotropy =    12.0228
   XX=    32.6927   YX=    -3.5547   ZX=    -0.9530
   XY=    -3.9577   YY=    38.4598   ZY=     0.2447
   XZ=    -1.4700   YZ=     0.5447   ZZ=    25.9021
   Eigenvalues:    25.6865    31.0013    40.3668
     18  H    Isotropic =    32.3873   Anisotropy =    13.7592
   XX=    29.2653   YX=     1.8158   ZX=    -2.0533
   XY=     1.6645   YY=    30.1748   ZY=    -5.8466
   XZ=    -1.7748   YZ=    -6.1712   ZZ=    37.7218
   Eigenvalues:    26.6861    28.9156    41.5601
     19  H    Isotropic =    32.3448   Anisotropy =    12.0403
   XX=    30.7570   YX=     0.9339   ZX=     2.3497
   XY=     1.2123   YY=    26.7640   ZY=     1.1312
   XZ=     2.9858   YZ=     0.7969   ZZ=    39.5134
   Eigenvalues:    26.4867    30.1760    40.3716
     20  H    Isotropic =    32.3627   Anisotropy =     7.9689
   XX=    31.6640   YX=    -0.2023   ZX=    -1.2196
   XY=    -0.4520   YY=    28.3645   ZY=     1.6787
   XZ=    -1.0890   YZ=     2.0230   ZZ=    37.0596
   Eigenvalues:    27.9847    31.4281    37.6753
     21  H    Isotropic =    32.3953   Anisotropy =    14.8509
   XX=    32.3221   YX=     5.2046   ZX=     1.6291
   XY=     5.0378   YY=    39.4120   ZY=     1.4356
   XZ=     1.4935   YZ=     1.0710   ZZ=    25.4518
   Eigenvalues:    25.1118    29.7782    42.2959
     22  H    Isotropic =    32.9131   Anisotropy =    12.4718
   XX=    33.1467   YX=    -4.3135   ZX=     0.7403
   XY=    -5.0640   YY=    38.5049   ZY=     0.9065
   XZ=     0.8252   YZ=     0.3555   ZZ=    27.0878
   Eigenvalues:    26.8128    30.6988    41.2277
     23  H    Isotropic =    32.3501   Anisotropy =    13.0890
   XX=    29.3625   YX=    -0.2528   ZX=    -1.8294
   XY=    -0.3358   YY=    27.7032   ZY=     3.0283
   XZ=    -2.2799   YZ=     3.1204   ZZ=    39.9845
   Eigenvalues:    26.9600    29.0141    41.0761
     24  H    Isotropic =    35.3228   Anisotropy =    18.7711
   XX=    31.3839   YX=    -6.6608   ZX=     1.8223
   XY=    -6.2419   YY=    40.2839   ZY=    -8.2287
   XZ=     1.3630   YZ=    -6.9203   ZZ=    34.3008
   Eigenvalues:    26.9062    31.2254    47.8369
     25  H    Isotropic =    32.4008   Anisotropy =    12.9406
   XX=    33.5630   YX=    -4.8303   ZX=     2.9415
   XY=    -4.5690   YY=    33.7395   ZY=    -4.8800
   XZ=     2.9137   YZ=    -4.5806   ZZ=    29.8999
   Eigenvalues:    26.7047    29.4698    41.0279
     26  H    Isotropic =    32.5799   Anisotropy =    15.1454
   XX=    37.4556   YX=    -3.8497   ZX=    -5.4728
   XY=    -3.8034   YY=    28.6985   ZY=     3.5510
   XZ=    -5.6224   YZ=     3.5581   ZZ=    31.5855
   Eigenvalues:    26.3045    28.7584    42.6768
     27  H    Isotropic =    32.0604   Anisotropy =     9.0673
   XX=    29.6325   YX=    -3.1314   ZX=     0.0875
   XY=    -2.9950   YY=    30.5461   ZY=    -3.7335
   XZ=    -0.2001   YZ=    -3.6729   ZZ=    36.0026
   Eigenvalues:    26.2886    31.7874    38.1053
     28  H    Isotropic =    32.4380   Anisotropy =     9.5106
   XX=    32.1435   YX=     3.7150   ZX=    -1.1816
   XY=     3.5501   YY=    34.4136   ZY=     4.6582
   XZ=    -1.0590   YZ=     5.1962   ZZ=    30.7569
   Eigenvalues:    25.8058    32.7298    38.7784
     29  H    Isotropic =    32.3779   Anisotropy =    14.7395
   XX=    41.7759   YX=     1.0340   ZX=    -2.2351
   XY=     1.3654   YY=    27.8946   ZY=     1.0044
   XZ=    -2.3294   YZ=     1.1456   ZZ=    27.4632
   Eigenvalues:    26.1709    28.7585    42.2042
     30  H    Isotropic =    32.2839   Anisotropy =     8.9976
   XX=    32.0812   YX=     0.6719   ZX=     0.6571
   XY=     1.0884   YY=    36.5244   ZY=    -4.0759
   XZ=     0.7363   YZ=    -4.1867   ZZ=    28.2461
   Eigenvalues:    26.3682    32.2013    38.2823
     31  H    Isotropic =    32.5257   Anisotropy =    12.6827
   XX=    31.6490   YX=     3.0008   ZX=     3.2101
   XY=     3.0899   YY=    29.4226   ZY=     5.1881
   XZ=     3.1746   YZ=     4.6852   ZZ=    36.5056
   Eigenvalues:    26.4713    30.1250    40.9808
 End of Minotr Frequency-dependent properties file   721 does not exist.
 End of Minotr Frequency-dependent properties file   722 does not exist.

 **********************************************************************

            Population analysis using the SCF density.

 **********************************************************************

 Orbital symmetries:
       Occupied  (A) (A) (A) (A) (A) (A) (A) (A) (A) (A) (A) (A)
                 (A) (A) (A) (A) (A) (A) (A) (A) (A) (A) (A) (A)
                 (A) (A) (A) (A) (A) (A) (A) (A) (A) (A) (A) (A)
                 (A) (A) (A) (A) (A) (A) (A) (A)
       Virtual   (A) (A) (A) (A) (A) (A) (A) (A) (A) (A) (A) (A)
                 (A) (A) (A) (A) (A) (A) (A) (A) (A) (A) (A) (A)
                 (A) (A) (A) (A) (A) (A) (A)
 The electronic state is 1-A.
 Alpha  occ. eigenvalues --  -20.23754 -11.08664 -11.04316 -11.04198 -11.04155
 Alpha  occ. eigenvalues --  -11.03696 -11.03085 -11.02926 -11.02855 -11.02448
 Alpha  occ. eigenvalues --  -11.01686  -1.28091  -1.07422  -1.03092  -0.96388
 Alpha  occ. eigenvalues --   -0.95044  -0.88056  -0.87554  -0.79753  -0.78101
 Alpha  occ. eigenvalues --   -0.72631  -0.66829  -0.64126  -0.60836  -0.59124
 Alpha  occ. eigenvalues --   -0.56567  -0.55265  -0.53912  -0.53604  -0.52263
 Alpha  occ. eigenvalues --   -0.50569  -0.49781  -0.48879  -0.47596  -0.46685
 Alpha  occ. eigenvalues --   -0.45219  -0.43198  -0.42534  -0.41716  -0.40508
 Alpha  occ. eigenvalues --   -0.39025  -0.38571  -0.35935  -0.32896
 Alpha virt. eigenvalues --    0.52248   0.56370   0.58254   0.59573   0.60460
 Alpha virt. eigenvalues --    0.61206   0.61819   0.65260   0.65841   0.66684
 Alpha virt. eigenvalues --    0.68975   0.69804   0.71114   0.71914   0.72439
 Alpha virt. eigenvalues --    0.72681   0.74124   0.75043   0.75690   0.76430
 Alpha virt. eigenvalues --    0.77358   0.78326   0.79072   0.79379   0.79959
 Alpha virt. eigenvalues --    0.81185   0.82249   0.83289   0.86134   0.86565
 Alpha virt. eigenvalues --    0.87209
          Condensed to atoms (all electrons):
              1          2          3          4          5          6
     1  C    4.742318   0.365191   0.000319   0.000745   0.000010  -0.024502
     2  C    0.365191   4.744891  -0.020497  -0.022134  -0.003290   0.363175
     3  C    0.000319  -0.020497   4.738055  -0.021246   0.356546  -0.007672
     4  C    0.000745  -0.022134  -0.021246   4.758510   0.357945   0.363368
     5  C    0.000010  -0.003290   0.356546   0.357945   4.776647  -0.020712
     6  C   -0.024502   0.363175  -0.007672   0.363368  -0.020712   4.754228
     7  C   -0.023692   0.359240   0.357747  -0.005992  -0.022448  -0.021529
     8  O   -0.000191  -0.000306   0.266944   0.000038  -0.015791  -0.000345
     9  C    0.000000   0.000003  -0.017928  -0.020982   0.357770   0.000346
    10  C    0.000000   0.000002  -0.000545  -0.002098  -0.019309  -0.000133
    11  C    0.000000   0.000000  -0.001980   0.000621  -0.022166  -0.000005
    12  H    0.382123  -0.020375   0.000010  -0.000018  -0.000001   0.001293
    13  H    0.382299  -0.020032  -0.000017   0.000015   0.000000  -0.002222
    14  H    0.382234  -0.020525   0.000094   0.000011   0.000006  -0.002264
    15  H   -0.025447   0.383167   0.001206  -0.000540   0.000032  -0.024046
    16  H   -0.000016   0.001171   0.376847   0.001139  -0.023640   0.000054
    17  H   -0.000016   0.001254   0.000918   0.382919  -0.020100  -0.020963
    18  H    0.000008  -0.002477   0.000729   0.382088  -0.022756  -0.024338
    19  H    0.000000   0.000076  -0.024076  -0.026053   0.380603   0.001276
    20  H   -0.004344  -0.021527   0.000043  -0.022897  -0.001826   0.382097
    21  H   -0.000498  -0.021681   0.000053  -0.021388   0.001194   0.382517
    22  H   -0.005961  -0.021634  -0.021709   0.000037   0.001126   0.001036
    23  H    0.001267  -0.021745  -0.021212  -0.000018  -0.001747   0.000595
    24  H   -0.000155   0.000002  -0.041160  -0.000025   0.002377   0.000045
    25  H    0.000000  -0.000001   0.001084  -0.002156  -0.024059   0.000013
    26  H    0.000000   0.000000  -0.000006   0.000021   0.001105   0.000004
    27  H    0.000000   0.000000   0.000013   0.000035  -0.000905  -0.000010
    28  H    0.000000   0.000001   0.000005  -0.000667  -0.001976  -0.000376
    29  H    0.000000   0.000000   0.000017  -0.000013   0.001170   0.000000
    30  H    0.000000   0.000000  -0.000441  -0.000003  -0.001399   0.000000
    31  H    0.000000   0.000000  -0.000097   0.000014  -0.002368   0.000000
              7          8          9         10         11         12
     1  C   -0.023692  -0.000191   0.000000   0.000000   0.000000   0.382123
     2  C    0.359240  -0.000306   0.000003   0.000002   0.000000  -0.020375
     3  C    0.357747   0.266944  -0.017928  -0.000545  -0.001980   0.000010
     4  C   -0.005992   0.000038  -0.020982  -0.002098   0.000621  -0.000018
     5  C   -0.022448  -0.015791   0.357770  -0.019309  -0.022166  -0.000001
     6  C   -0.021529  -0.000345   0.000346  -0.000133  -0.000005   0.001293
     7  C    4.787205  -0.020444   0.000543  -0.000005   0.000007  -0.002352
     8  O   -0.020444   7.849953  -0.000412  -0.001225  -0.000094   0.000005
     9  C    0.000543  -0.000412   4.732845   0.364462   0.364032   0.000000
    10  C   -0.000005  -0.001225   0.364462   4.743147  -0.025642   0.000000
    11  C    0.000007  -0.000094   0.364032  -0.025642   4.742990   0.000000
    12  H   -0.002352   0.000005   0.000000   0.000000   0.000000   0.635734
    13  H    0.001271   0.000003   0.000000   0.000000   0.000000  -0.021787
    14  H   -0.001859   0.000047   0.000000   0.000000   0.000000  -0.022020
    15  H   -0.025108  -0.000006   0.000000   0.000000   0.000000  -0.002601
    16  H   -0.026227  -0.020016  -0.000528   0.000004  -0.000392  -0.000001
    17  H    0.000041  -0.000008  -0.005292  -0.000667   0.000040   0.000000
    18  H   -0.000040  -0.000006   0.001180   0.000019  -0.000015   0.000000
    19  H   -0.000817   0.000556  -0.024275   0.001182  -0.002224   0.000000
    20  H   -0.000220  -0.000048   0.000092  -0.000185  -0.000002   0.000052
    21  H    0.001160   0.000007  -0.000011   0.000003   0.000000  -0.000014
    22  H    0.381702  -0.001290  -0.000013   0.000000   0.000000   0.000059
    23  H    0.379996   0.000659   0.000012   0.000000   0.000000   0.000058
    24  H   -0.003123   0.258345   0.000013   0.000061  -0.000001   0.000005
    25  H   -0.000013  -0.000006   0.381828  -0.025755  -0.024856   0.000000
    26  H    0.000000   0.000017  -0.020483   0.381136  -0.001949   0.000000
    27  H    0.000000   0.000332  -0.019666   0.382841  -0.002654   0.000000
    28  H   -0.000001   0.000017  -0.019546   0.382615   0.001293   0.000000
    29  H    0.000000   0.000000  -0.019866  -0.002064   0.382452   0.000000
    30  H    0.000006   0.000130  -0.020125  -0.002432   0.382565   0.000000
    31  H   -0.000001   0.000006  -0.020393   0.001312   0.381796   0.000000
             13         14         15         16         17         18
     1  C    0.382299   0.382234  -0.025447  -0.000016  -0.000016   0.000008
     2  C   -0.020032  -0.020525   0.383167   0.001171   0.001254  -0.002477
     3  C   -0.000017   0.000094   0.001206   0.376847   0.000918   0.000729
     4  C    0.000015   0.000011  -0.000540   0.001139   0.382919   0.382088
     5  C    0.000000   0.000006   0.000032  -0.023640  -0.020100  -0.022756
     6  C   -0.002222  -0.002264  -0.024046   0.000054  -0.020963  -0.024338
     7  C    0.001271  -0.001859  -0.025108  -0.026227   0.000041  -0.000040
     8  O    0.000003   0.000047  -0.000006  -0.020016  -0.000008  -0.000006
     9  C    0.000000   0.000000   0.000000  -0.000528  -0.005292   0.001180
    10  C    0.000000   0.000000   0.000000   0.000004  -0.000667   0.000019
    11  C    0.000000   0.000000   0.000000  -0.000392   0.000040  -0.000015
    12  H   -0.021787  -0.022020  -0.002601  -0.000001   0.000000   0.000000
    13  H    0.630330  -0.021539  -0.002315   0.000001  -0.000001   0.000000
    14  H   -0.021539   0.628249   0.001949  -0.000004  -0.000001   0.000000
    15  H   -0.002315   0.001949   0.657131  -0.000035  -0.000014   0.000364
    16  H    0.000001  -0.000004  -0.000035   0.663540  -0.000024  -0.000029
    17  H   -0.000001  -0.000001  -0.000014  -0.000024   0.637756  -0.024646
    18  H    0.000000   0.000000   0.000364  -0.000029  -0.024646   0.654729
    19  H    0.000000   0.000000   0.000000  -0.004434   0.001093  -0.008421
    20  H   -0.000072   0.000327   0.001871   0.000001  -0.002266   0.002058
    21  H    0.000166   0.000014  -0.004929   0.000001  -0.002298  -0.002485
    22  H    0.000086   0.000057   0.000901  -0.002220   0.000001   0.000003
    23  H   -0.000038   0.000002  -0.007206  -0.001890   0.000004  -0.000186
    24  H    0.000002  -0.000167  -0.000002  -0.003503   0.000002   0.000001
    25  H    0.000000   0.000000   0.000000  -0.000011   0.000020   0.000052
    26  H    0.000000   0.000000   0.000000   0.000000  -0.000031   0.000000
    27  H    0.000000   0.000000   0.000000   0.000011   0.000025  -0.000002
    28  H    0.000000   0.000000   0.000000   0.000000  -0.000387   0.000009
    29  H    0.000000   0.000000   0.000000   0.000010  -0.000003   0.000000
    30  H    0.000000   0.000000   0.000000  -0.000700   0.000000   0.000000
    31  H    0.000000   0.000000   0.000000  -0.000052   0.000002  -0.000001
             19         20         21         22         23         24
     1  C    0.000000  -0.004344  -0.000498  -0.005961   0.001267  -0.000155
     2  C    0.000076  -0.021527  -0.021681  -0.021634  -0.021745   0.000002
     3  C   -0.024076   0.000043   0.000053  -0.021709  -0.021212  -0.041160
     4  C   -0.026053  -0.022897  -0.021388   0.000037  -0.000018  -0.000025
     5  C    0.380603  -0.001826   0.001194   0.001126  -0.001747   0.002377
     6  C    0.001276   0.382097   0.382517   0.001036   0.000595   0.000045
     7  C   -0.000817  -0.000220   0.001160   0.381702   0.379996  -0.003123
     8  O    0.000556  -0.000048   0.000007  -0.001290   0.000659   0.258345
     9  C   -0.024275   0.000092  -0.000011  -0.000013   0.000012   0.000013
    10  C    0.001182  -0.000185   0.000003   0.000000   0.000000   0.000061
    11  C   -0.002224  -0.000002   0.000000   0.000000   0.000000  -0.000001
    12  H    0.000000   0.000052  -0.000014   0.000059   0.000058   0.000005
    13  H    0.000000  -0.000072   0.000166   0.000086  -0.000038   0.000002
    14  H    0.000000   0.000327   0.000014   0.000057   0.000002  -0.000167
    15  H    0.000000   0.001871  -0.004929   0.000901  -0.007206  -0.000002
    16  H   -0.004434   0.000001   0.000001  -0.002220  -0.001890  -0.003503
    17  H    0.001093  -0.002266  -0.002298   0.000001   0.000004   0.000002
    18  H   -0.008421   0.002058  -0.002485   0.000003  -0.000186   0.000001
    19  H    0.662762   0.000000  -0.000039   0.000004   0.000032  -0.000077
    20  H    0.000000   0.631424  -0.023923  -0.000010  -0.000021   0.000013
    21  H   -0.000039  -0.023923   0.644032  -0.000025  -0.000028  -0.000001
    22  H    0.000004  -0.000010  -0.000025   0.643634  -0.022947   0.000541
    23  H    0.000032  -0.000021  -0.000028  -0.022947   0.643371  -0.000003
    24  H   -0.000077   0.000013  -0.000001   0.000541  -0.000003   0.609770
    25  H   -0.003663   0.000004  -0.000001   0.000000   0.000000   0.000001
    26  H   -0.000033   0.000003   0.000000   0.000000   0.000000  -0.000002
    27  H   -0.000009  -0.000029   0.000000   0.000000   0.000000   0.000020
    28  H    0.000021  -0.000158   0.000016   0.000000   0.000000  -0.000002
    29  H    0.000015   0.000000   0.000000   0.000000   0.000000   0.000000
    30  H    0.000018   0.000000   0.000000   0.000001   0.000000   0.000001
    31  H    0.000258   0.000000   0.000000   0.000000   0.000000   0.000000
             25         26         27         28         29         30
     1  C    0.000000   0.000000   0.000000   0.000000   0.000000   0.000000
     2  C   -0.000001   0.000000   0.000000   0.000001   0.000000   0.000000
     3  C    0.001084  -0.000006   0.000013   0.000005   0.000017  -0.000441
     4  C   -0.002156   0.000021   0.000035  -0.000667  -0.000013  -0.000003
     5  C   -0.024059   0.001105  -0.000905  -0.001976   0.001170  -0.001399
     6  C    0.000013   0.000004  -0.000010  -0.000376   0.000000   0.000000
     7  C   -0.000013   0.000000   0.000000  -0.000001   0.000000   0.000006
     8  O   -0.000006   0.000017   0.000332   0.000017   0.000000   0.000130
     9  C    0.381828  -0.020483  -0.019666  -0.019546  -0.019866  -0.020125
    10  C   -0.025755   0.381136   0.382841   0.382615  -0.002064  -0.002432
    11  C   -0.024856  -0.001949  -0.002654   0.001293   0.382452   0.382565
    12  H    0.000000   0.000000   0.000000   0.000000   0.000000   0.000000
    13  H    0.000000   0.000000   0.000000   0.000000   0.000000   0.000000
    14  H    0.000000   0.000000   0.000000   0.000000   0.000000   0.000000
    15  H    0.000000   0.000000   0.000000   0.000000   0.000000   0.000000
    16  H   -0.000011   0.000000   0.000011   0.000000   0.000010  -0.000700
    17  H    0.000020  -0.000031   0.000025  -0.000387  -0.000003   0.000000
    18  H    0.000052   0.000000  -0.000002   0.000009   0.000000   0.000000
    19  H   -0.003663  -0.000033  -0.000009   0.000021   0.000015   0.000018
    20  H    0.000004   0.000003  -0.000029  -0.000158   0.000000   0.000000
    21  H   -0.000001   0.000000   0.000000   0.000016   0.000000   0.000000
    22  H    0.000000   0.000000   0.000000   0.000000   0.000000   0.000001
    23  H    0.000000   0.000000   0.000000   0.000000   0.000000   0.000000
    24  H    0.000001  -0.000002   0.000020  -0.000002   0.000000   0.000001
    25  H    0.658810  -0.003462   0.001920  -0.001669  -0.002951   0.001929
    26  H   -0.003462   0.639584  -0.022316  -0.022257   0.000119  -0.000006
    27  H    0.001920  -0.022316   0.611765  -0.021232  -0.000027   0.000357
    28  H   -0.001669  -0.022257  -0.021232   0.631744   0.000023   0.000014
    29  H   -0.002951   0.000119  -0.000027   0.000023   0.631758  -0.021896
    30  H    0.001929  -0.000006   0.000357   0.000014  -0.021896   0.626466
    31  H   -0.002022   0.000019   0.000020  -0.000037  -0.021816  -0.021780
             31
     1  C    0.000000
     2  C    0.000000
     3  C   -0.000097
     4  C    0.000014
     5  C   -0.002368
     6  C    0.000000
     7  C   -0.000001
     8  O    0.000006
     9  C   -0.020393
    10  C    0.001312
    11  C    0.381796
    12  H    0.000000
    13  H    0.000000
    14  H    0.000000
    15  H    0.000000
    16  H   -0.000052
    17  H    0.000002
    18  H   -0.000001
    19  H    0.000258
    20  H    0.000000
    21  H    0.000000
    22  H    0.000000
    23  H    0.000000
    24  H    0.000000
    25  H   -0.002022
    26  H    0.000019
    27  H    0.000020
    28  H   -0.000037
    29  H   -0.021816
    30  H   -0.021780
    31  H    0.636129
 Mulliken atomic charges:
              1
     1  C   -0.171693
     2  C   -0.021947
     3  C    0.077955
     4  C   -0.101277
     5  C   -0.032039
     6  C   -0.100927
     7  C   -0.115049
     8  O   -0.316872
     9  C   -0.013604
    10  C   -0.176724
    11  C   -0.173814
    12  H    0.049828
    13  H    0.053850
    14  H    0.055389
    15  H    0.045624
    16  H    0.040945
    17  H    0.052641
    18  H    0.044162
    19  H    0.046226
    20  H    0.059541
    21  H    0.048158
    22  H    0.046620
    23  H    0.051043
    24  H    0.177022
    25  H    0.044962
    26  H    0.048537
    27  H    0.069510
    28  H    0.052551
    29  H    0.053071
    30  H    0.057298
    31  H    0.049012
 Sum of Mulliken atomic charges =   0.00000
 Mulliken charges with hydrogens summed into heavy atoms:
              1
     1  C   -0.012626
     2  C    0.023677
     3  C    0.118900
     4  C   -0.004473
     5  C    0.014187
     6  C    0.006772
     7  C   -0.017386
     8  O   -0.139850
     9  C    0.031358
    10  C   -0.006126
    11  C   -0.014433
 Sum of Mulliken charges with hydrogens summed into heavy atoms =   0.00000
 Electronic spatial extent (au):  <R**2>=           1975.2579
 Charge=              0.0000 electrons
 Dipole moment (field-independent basis, Debye):
    X=              0.6175    Y=             -0.7456    Z=             -0.9056  Tot=              1.3257
 Quadrupole moment (field-independent basis, Debye-Ang):
   XX=            -67.9807   YY=            -64.5147   ZZ=            -68.2946
   XY=             -1.4145   XZ=              0.5453   YZ=             -0.4911
 Traceless Quadrupole moment (field-independent basis, Debye-Ang):
   XX=             -1.0507   YY=              2.4153   ZZ=             -1.3646
   XY=             -1.4145   XZ=              0.5453   YZ=             -0.4911
 Octapole moment (field-independent basis, Debye-Ang**2):
  XXX=             -1.4541  YYY=            -15.1365  ZZZ=              3.3341  XYY=              4.0804
  XXY=             -0.6956  XXZ=              1.7394  XZZ=              0.9479  YZZ=             -3.6484
  YYZ=              5.7512  XYZ=             -1.2846
 Hexadecapole moment (field-independent basis, Debye-Ang**3):
 XXXX=          -1683.7291 YYYY=           -479.2584 ZZZZ=           -360.2886 XXXY=             -6.0622
 XXXZ=             -9.4814 YYYX=             -6.5600 YYYZ=            -16.9005 ZZZX=              1.8558
 ZZZY=            -10.7645 XXYY=           -360.7308 XXZZ=           -343.3904 YYZZ=           -141.7018
 XXYZ=             -2.8220 YYXZ=              4.2268 ZZXY=              0.7483
 N-N= 7.057941484965D+02 E-N=-2.483872375489D+03  KE= 4.555372744575D+02
 ******************************Gaussian NBO Version 3.1******************************
             N A T U R A L   A T O M I C   O R B I T A L   A N D
          N A T U R A L   B O N D   O R B I T A L   A N A L Y S I S
 ******************************Gaussian NBO Version 3.1******************************
       /RESON  / : Allow strongly delocalized NBO set
       /NLMO   / : Form Natural Localized Molecular Orbitals
       /NMR /    : Analyze NMR Sheilding Tensor 

 Analyzing the SCF density

 Job title: comment                                                         

 Storage needed:     19864 in NPA,     23691 in NBO,     45933 in NLMO (  33549317 available)


 NATURAL POPULATIONS:  Natural atomic orbital occupancies 
                                                          
   NAO  Atom  No  lang   Type(AO)    Occupancy      Energy
 ----------------------------------------------------------
     1    C    1  S      Cor( 1S)     1.99998     -10.96211
     2    C    1  S      Val( 2S)     1.08106      -0.17959
     3    C    1  px     Val( 2p)     1.01235       0.08826
     4    C    1  py     Val( 2p)     1.02459       0.08710
     5    C    1  pz     Val( 2p)     1.00877       0.08963

     6    C    2  S      Cor( 1S)     1.99997     -10.98646
     7    C    2  S      Val( 2S)     1.08168      -0.19052
     8    C    2  px     Val( 2p)     0.96748       0.10932
     9    C    2  py     Val( 2p)     0.95816       0.11312
    10    C    2  pz     Val( 2p)     0.97578       0.11072

    11    C    3  S      Cor( 1S)     1.99989     -11.03577
    12    C    3  S      Val( 2S)     1.08730      -0.21674
    13    C    3  px     Val( 2p)     0.96735       0.08882
    14    C    3  py     Val( 2p)     0.98998       0.07977
    15    C    3  pz     Val( 2p)     0.80962       0.13266

    16    C    4  S      Cor( 1S)     1.99996     -10.96956
    17    C    4  S      Val( 2S)     1.08552      -0.18473
    18    C    4  px     Val( 2p)     0.98717       0.10186
    19    C    4  py     Val( 2p)     0.98679       0.10292
    20    C    4  pz     Val( 2p)     1.00495       0.09829

    21    C    5  S      Cor( 1S)     1.99995     -10.98797
    22    C    5  S      Val( 2S)     1.10327      -0.20985
    23    C    5  px     Val( 2p)     0.95933       0.10982
    24    C    5  py     Val( 2p)     0.95067       0.11331
    25    C    5  pz     Val( 2p)     0.99687       0.09632

    26    C    6  S      Cor( 1S)     1.99996     -10.96727
    27    C    6  S      Val( 2S)     1.08308      -0.18041
    28    C    6  px     Val( 2p)     0.98080       0.10600
    29    C    6  py     Val( 2p)     0.99385       0.10174
    30    C    6  pz     Val( 2p)     1.00681       0.10114

    31    C    7  S      Cor( 1S)     1.99996     -10.97575
    32    C    7  S      Val( 2S)     1.09458      -0.20083
    33    C    7  px     Val( 2p)     0.98758       0.08906
    34    C    7  py     Val( 2p)     0.99513       0.09001
    35    C    7  pz     Val( 2p)     1.01391       0.08417

    36    O    8  S      Cor( 1S)     1.99999     -20.14116
    37    O    8  S      Val( 2S)     1.74602      -0.99821
    38    O    8  px     Val( 2p)     1.80827      -0.30715
    39    O    8  py     Val( 2p)     1.49545      -0.18273
    40    O    8  pz     Val( 2p)     1.28824      -0.08859

    41    C    9  S      Cor( 1S)     1.99996     -10.98607
    42    C    9  S      Val( 2S)     1.08448      -0.18936
    43    C    9  px     Val( 2p)     0.95225       0.11630
    44    C    9  py     Val( 2p)     0.97206       0.11387
    45    C    9  pz     Val( 2p)     0.96353       0.11886

    46    C   10  S      Cor( 1S)     1.99997     -10.95047
    47    C   10  S      Val( 2S)     1.07998      -0.16742
    48    C   10  px     Val( 2p)     1.02714       0.09761
    49    C   10  py     Val( 2p)     1.03257       0.09659
    50    C   10  pz     Val( 2p)     0.99416       0.10263

    51    C   11  S      Cor( 1S)     1.99997     -10.95825
    52    C   11  S      Val( 2S)     1.08066      -0.17600
    53    C   11  px     Val( 2p)     1.01636       0.09004
    54    C   11  py     Val( 2p)     1.00822       0.09241
    55    C   11  pz     Val( 2p)     1.02469       0.09237

    56    H   12  S      Val( 1S)     0.96729       0.07368

    57    H   13  S      Val( 1S)     0.96345       0.07699

    58    H   14  S      Val( 1S)     0.96233       0.07926

    59    H   15  S      Val( 1S)     0.97883       0.06775

    60    H   16  S      Val( 1S)     0.99486       0.04854

    61    H   17  S      Val( 1S)     0.96828       0.07762

    62    H   18  S      Val( 1S)     0.97648       0.07146

    63    H   19  S      Val( 1S)     0.97869       0.06400

    64    H   20  S      Val( 1S)     0.96242       0.08819

    65    H   21  S      Val( 1S)     0.97211       0.07472

    66    H   22  S      Val( 1S)     0.97320       0.06079

    67    H   23  S      Val( 1S)     0.96889       0.06581

    68    H   24  S      Val( 1S)     0.81015       0.07372

    69    H   25  S      Val( 1S)     0.98028       0.06949

    70    H   26  S      Val( 1S)     0.96794       0.08266

    71    H   27  S      Val( 1S)     0.94962       0.10445

    72    H   28  S      Val( 1S)     0.96457       0.08883

    73    H   29  S      Val( 1S)     0.96399       0.07971

    74    H   30  S      Val( 1S)     0.96057       0.08483

    75    H   31  S      Val( 1S)     0.96797       0.07678


 Summary of Natural Population Analysis:                  
                                                          
                                       Natural Population 
                Natural  -----------------------------------------------
    Atom  No    Charge         Core      Valence    Rydberg      Total
 -----------------------------------------------------------------------
      C    1   -0.12675      1.99998     4.12677    0.00000     6.12675
      C    2    0.01692      1.99997     3.98311    0.00000     5.98308
      C    3    0.14586      1.99989     3.85425    0.00000     5.85414
      C    4   -0.06438      1.99996     4.06443    0.00000     6.06438
      C    5   -0.01009      1.99995     4.01014    0.00000     6.01009
      C    6   -0.06451      1.99996     4.06455    0.00000     6.06451
      C    7   -0.09115      1.99996     4.09119    0.00000     6.09115
      O    8   -0.33797      1.99999     6.33798    0.00000     8.33797
      C    9    0.02771      1.99996     3.97233    0.00000     5.97229
      C   10   -0.13382      1.99997     4.13385    0.00000     6.13382
      C   11   -0.12990      1.99997     4.12993    0.00000     6.12990
      H   12    0.03271      0.00000     0.96729    0.00000     0.96729
      H   13    0.03655      0.00000     0.96345    0.00000     0.96345
      H   14    0.03767      0.00000     0.96233    0.00000     0.96233
      H   15    0.02117      0.00000     0.97883    0.00000     0.97883
      H   16    0.00514      0.00000     0.99486    0.00000     0.99486
      H   17    0.03172      0.00000     0.96828    0.00000     0.96828
      H   18    0.02352      0.00000     0.97648    0.00000     0.97648
      H   19    0.02131      0.00000     0.97869    0.00000     0.97869
      H   20    0.03758      0.00000     0.96242    0.00000     0.96242
      H   21    0.02789      0.00000     0.97211    0.00000     0.97211
      H   22    0.02680      0.00000     0.97320    0.00000     0.97320
      H   23    0.03111      0.00000     0.96889    0.00000     0.96889
      H   24    0.18985      0.00000     0.81015    0.00000     0.81015
      H   25    0.01972      0.00000     0.98028    0.00000     0.98028
      H   26    0.03206      0.00000     0.96794    0.00000     0.96794
      H   27    0.05038      0.00000     0.94962    0.00000     0.94962
      H   28    0.03543      0.00000     0.96457    0.00000     0.96457
      H   29    0.03601      0.00000     0.96399    0.00000     0.96399
      H   30    0.03943      0.00000     0.96057    0.00000     0.96057
      H   31    0.03203      0.00000     0.96797    0.00000     0.96797
 =======================================================================
   * Total *    0.00000     21.99954    66.00046    0.00000    88.00000

                                 Natural Population      
 --------------------------------------------------------
   Core                      21.99954 ( 99.9979% of  22)
   Valence                   66.00046 (100.0007% of  66)
   Natural Minimal Basis     88.00000 (100.0000% of  88)
   Natural Rydberg Basis      0.00000 (  0.0000% of  88)
 --------------------------------------------------------

    Atom  No          Natural Electron Configuration
 ----------------------------------------------------------------------------
      C    1      [core]2S( 1.08)2p( 3.05)
      C    2      [core]2S( 1.08)2p( 2.90)
      C    3      [core]2S( 1.09)2p( 2.77)
      C    4      [core]2S( 1.09)2p( 2.98)
      C    5      [core]2S( 1.10)2p( 2.91)
      C    6      [core]2S( 1.08)2p( 2.98)
      C    7      [core]2S( 1.09)2p( 3.00)
      O    8      [core]2S( 1.75)2p( 4.59)
      C    9      [core]2S( 1.08)2p( 2.89)
      C   10      [core]2S( 1.08)2p( 3.05)
      C   11      [core]2S( 1.08)2p( 3.05)
      H   12            1S( 0.97)
      H   13            1S( 0.96)
      H   14            1S( 0.96)
      H   15            1S( 0.98)
      H   16            1S( 0.99)
      H   17            1S( 0.97)
      H   18            1S( 0.98)
      H   19            1S( 0.98)
      H   20            1S( 0.96)
      H   21            1S( 0.97)
      H   22            1S( 0.97)
      H   23            1S( 0.97)
      H   24            1S( 0.81)
      H   25            1S( 0.98)
      H   26            1S( 0.97)
      H   27            1S( 0.95)
      H   28            1S( 0.96)
      H   29            1S( 0.96)
      H   30            1S( 0.96)
      H   31            1S( 0.97)


 NATURAL BOND ORBITAL ANALYSIS:

                       Occupancies       Lewis Structure    Low   High
           Occ.    -------------------  -----------------   occ   occ
  Cycle   Thresh.   Lewis   Non-Lewis     CR  BD  3C  LP    (L)   (NL)   Dev
 =============================================================================
   1(1)    1.90    87.64446   0.35554     11  31   0   2     0      0    0.02
 -----------------------------------------------------------------------------

 Structure accepted: No low occupancy Lewis orbitals

 --------------------------------------------------------
   Core                     21.99954 ( 99.998% of  22)
   Valence Lewis            65.64493 ( 99.462% of  66)
  ==================       ============================
   Total Lewis              87.64446 ( 99.596% of  88)
  -----------------------------------------------------
   Valence non-Lewis         0.35554 (  0.404% of  88)
   Rydberg non-Lewis         0.00000 (  0.000% of  88)
  ==================       ============================
   Total non-Lewis           0.35554 (  0.404% of  88)
 --------------------------------------------------------


       (Occupancy)   Bond orbital/ Coefficients/ Hybrids
 ---------------------------------------------------------------------------------
     1. (1.99044) BD ( 1) C   1 - C   2  
                ( 50.92%)   0.7136* C   1 s( 25.76%)p 2.88( 74.24%)
                                            0.0001  0.5076 -0.5413  0.2172 -0.6342
                ( 49.08%)   0.7006* C   2 s( 25.04%)p 2.99( 74.96%)
                                            0.0000  0.5004  0.5157 -0.2365  0.6540
     2. (1.99485) BD ( 1) C   1 - H  12  
                ( 51.64%)   0.7186* C   1 s( 24.64%)p 3.06( 75.36%)
                                            0.0000  0.4964  0.5594 -0.5994 -0.2855
                ( 48.36%)   0.6954* H  12 s(100.00%)
                                            1.0000
     3. (1.99505) BD ( 1) C   1 - H  13  
                ( 51.84%)   0.7200* C   1 s( 24.73%)p 3.04( 75.27%)
                                            0.0000  0.4973  0.4416  0.6997  0.2609
                ( 48.16%)   0.6940* H  13 s(100.00%)
                                            1.0000
     4. (1.99530) BD ( 1) C   1 - H  14  
                ( 51.93%)   0.7206* C   1 s( 24.86%)p 3.02( 75.14%)
                                            0.0000  0.4986 -0.4463 -0.3224  0.6695
                ( 48.07%)   0.6933* H  14 s(100.00%)
                                            1.0000
     5. (1.98507) BD ( 1) C   2 - C   6  
                ( 49.91%)   0.7065* C   2 s( 25.40%)p 2.94( 74.60%)
                                            0.0000  0.5040 -0.5361  0.6241  0.2628
                ( 50.09%)   0.7077* C   6 s( 25.31%)p 2.95( 74.69%)
                                            0.0001  0.5031  0.5023 -0.6535 -0.2600
     6. (1.98516) BD ( 1) C   2 - C   7  
                ( 49.18%)   0.7013* C   2 s( 25.25%)p 2.96( 74.75%)
                                            0.0000  0.5025 -0.4557 -0.6826 -0.2720
                ( 50.82%)   0.7129* C   7 s( 25.50%)p 2.92( 74.50%)
                                            0.0001  0.5050  0.4136  0.6841  0.3255
     7. (1.98632) BD ( 1) C   2 - H  15  
                ( 50.98%)   0.7140* C   2 s( 24.31%)p 3.11( 75.69%)
                                            0.0000  0.4931  0.4889  0.2976 -0.6552
                ( 49.02%)   0.7002* H  15 s(100.00%)
                                            1.0000
     8. (1.98188) BD ( 1) C   3 - C   5  
                ( 50.66%)   0.7118* C   3 s( 26.66%)p 2.75( 73.34%)
                                            0.0000  0.5163 -0.4291  0.7160 -0.1916
                ( 49.34%)   0.7024* C   5 s( 25.63%)p 2.90( 74.37%)
                                            0.0001  0.5063  0.4276 -0.6847  0.3034
     9. (1.98754) BD ( 1) C   3 - C   7  
                ( 49.32%)   0.7023* C   3 s( 25.53%)p 2.92( 74.47%)
                                            0.0000  0.5053  0.8165  0.0515 -0.2745
                ( 50.68%)   0.7119* C   7 s( 25.10%)p 2.98( 74.90%)
                                            0.0000  0.5010 -0.8142 -0.0170  0.2929
    10. (1.98899) BD ( 1) C   3 - O   8  
                ( 40.85%)   0.6392* C   3 s( 22.29%)p 3.49( 77.71%)
                                            0.0000  0.4721  0.0087 -0.1009  0.8757
                ( 59.15%)   0.7691* O   8 s( 16.87%)p 4.93( 83.13%)
                                            0.0000  0.4108  0.0351  0.0632 -0.9089
    11. (1.98867) BD ( 1) C   3 - H  16  
                ( 50.54%)   0.7109* C   3 s( 25.53%)p 2.92( 74.47%)
                                            0.0000  0.5052 -0.3862 -0.6889 -0.3479
                ( 49.46%)   0.7033* H  16 s(100.00%)
                                            1.0000
    12. (1.98504) BD ( 1) C   4 - C   5  
                ( 50.32%)   0.7094* C   4 s( 25.47%)p 2.93( 74.53%)
                                            0.0001  0.5047 -0.4761 -0.7200  0.0105
                ( 49.68%)   0.7048* C   5 s( 25.25%)p 2.96( 74.75%)
                                            0.0000  0.5025  0.4861  0.7105  0.0796
    13. (1.99032) BD ( 1) C   4 - C   6  
                ( 50.13%)   0.7080* C   4 s( 25.38%)p 2.94( 74.62%)
                                            0.0000  0.5038  0.6807 -0.0893  0.5244
                ( 49.87%)   0.7062* C   6 s( 25.19%)p 2.97( 74.81%)
                                            0.0000  0.5019 -0.6901  0.0620 -0.5177
    14. (1.98962) BD ( 1) C   4 - H  17  
                ( 51.57%)   0.7182* C   4 s( 25.16%)p 2.97( 74.84%)
                                            0.0000  0.5016 -0.4800  0.6728  0.2557
                ( 48.43%)   0.6959* H  17 s(100.00%)
                                            1.0000
    15. (1.99151) BD ( 1) C   4 - H  18  
                ( 51.17%)   0.7153* C   4 s( 23.98%)p 3.17( 76.02%)
                                            0.0000  0.4897  0.2822  0.1448 -0.8121
                ( 48.83%)   0.6988* H  18 s(100.00%)
                                            1.0000
    16. (1.97948) BD ( 1) C   5 - C   9  
                ( 50.47%)   0.7104* C   5 s( 25.81%)p 2.87( 74.19%)
                                            0.0001  0.5080 -0.7421  0.1008  0.4255
                ( 49.53%)   0.7038* C   9 s( 25.40%)p 2.94( 74.60%)
                                            0.0001  0.5040  0.7904 -0.1413 -0.3182
    17. (1.98332) BD ( 1) C   5 - H  19  
                ( 50.87%)   0.7132* C   5 s( 23.31%)p 3.29( 76.69%)
                                            0.0000  0.4828 -0.1735 -0.1276 -0.8488
                ( 49.13%)   0.7010* H  19 s(100.00%)
                                            1.0000
    18. (1.99060) BD ( 1) C   6 - H  20  
                ( 51.93%)   0.7206* C   6 s( 24.80%)p 3.03( 75.20%)
                                            0.0000  0.4979 -0.2617 -0.1418  0.8145
                ( 48.07%)   0.6933* H  20 s(100.00%)
                                            1.0000
    19. (1.98984) BD ( 1) C   6 - H  21  
                ( 51.35%)   0.7166* C   6 s( 24.70%)p 3.05( 75.30%)
                                            0.0000  0.4970  0.4506  0.7410 -0.0301
                ( 48.65%)   0.6975* H  21 s(100.00%)
                                            1.0000
    20. (1.98888) BD ( 1) C   7 - H  22  
                ( 51.31%)   0.7163* C   7 s( 25.10%)p 2.98( 74.90%)
                                            0.0000  0.5010  0.4073 -0.7271  0.2331
                ( 48.69%)   0.6978* H  22 s(100.00%)
                                            1.0000
    21. (1.98973) BD ( 1) C   7 - H  23  
                ( 51.50%)   0.7176* C   7 s( 24.29%)p 3.12( 75.71%)
                                            0.0000  0.4929 -0.0102  0.0555 -0.8683
                ( 48.50%)   0.6964* H  23 s(100.00%)
                                            1.0000
    22. (1.98859) BD ( 1) O   8 - H  24  
                ( 59.49%)   0.7713* O   8 s( 16.85%)p 4.94( 83.15%)
                                            0.0000 -0.4105 -0.4610  0.7724 -0.1496
                ( 40.51%)   0.6364* H  24 s(100.00%)
                                           -1.0000
    23. (1.99018) BD ( 1) C   9 - C  10  
                ( 49.36%)   0.7025* C   9 s( 25.55%)p 2.91( 74.45%)
                                            0.0000  0.5055  0.0521  0.2183  0.8332
                ( 50.64%)   0.7116* C  10 s( 25.92%)p 2.86( 74.08%)
                                            0.0001  0.5091  0.0071 -0.2474 -0.8243
    24. (1.98936) BD ( 1) C   9 - C  11  
                ( 48.96%)   0.6997* C   9 s( 25.01%)p 3.00( 74.99%)
                                            0.0000  0.5001 -0.4813 -0.7148 -0.0860
                ( 51.04%)   0.7145* C  11 s( 25.77%)p 2.88( 74.23%)
                                            0.0001  0.5076  0.5130  0.6857  0.0952
    25. (1.98360) BD ( 1) C   9 - H  25  
                ( 50.84%)   0.7130* C   9 s( 24.04%)p 3.16( 75.96%)
                                            0.0000  0.4903 -0.3753  0.6492 -0.4441
                ( 49.16%)   0.7011* H  25 s(100.00%)
                                            1.0000
    26. (1.99424) BD ( 1) C  10 - H  26  
                ( 51.58%)   0.7182* C  10 s( 24.17%)p 3.14( 75.83%)
                                            0.0000  0.4917 -0.8095  0.2245  0.2293
                ( 48.42%)   0.6958* H  26 s(100.00%)
                                            1.0000
    27. (1.99569) BD ( 1) C  10 - H  27  
                ( 52.61%)   0.7253* C  10 s( 25.03%)p 3.00( 74.97%)
                                            0.0000  0.5003  0.2671 -0.6496  0.5063
                ( 47.39%)   0.6884* H  27 s(100.00%)
                                            1.0000
    28. (1.99435) BD ( 1) C  10 - H  28  
                ( 51.80%)   0.7197* C  10 s( 24.87%)p 3.02( 75.13%)
                                            0.0000  0.4987  0.5228  0.6829  0.1076
                ( 48.20%)   0.6943* H  28 s(100.00%)
                                            1.0000
    29. (1.99477) BD ( 1) C  11 - H  29  
                ( 51.80%)   0.7197* C  11 s( 24.67%)p 3.05( 75.33%)
                                            0.0000  0.4966 -0.8020  0.1950  0.2686
                ( 48.20%)   0.6943* H  29 s(100.00%)
                                            1.0000
    30. (1.99552) BD ( 1) C  11 - H  30  
                ( 52.03%)   0.7213* C  11 s( 24.91%)p 3.02( 75.09%)
                                            0.0000  0.4991  0.3048 -0.6625  0.4682
                ( 47.97%)   0.6926* H  30 s(100.00%)
                                            1.0000
    31. (1.99512) BD ( 1) C  11 - H  31  
                ( 51.62%)   0.7185* C  11 s( 24.66%)p 3.05( 75.34%)
                                            0.0000  0.4966 -0.0286 -0.2301 -0.8364
                ( 48.38%)   0.6955* H  31 s(100.00%)
                                            1.0000
    32. (1.99997) CR ( 1) C   1           s(100.00%)
                                            1.0000  0.0000  0.0000  0.0000  0.0000
    33. (1.99996) CR ( 1) C   2           s(100.00%)
                                            1.0000  0.0000  0.0001  0.0000  0.0000
    34. (1.99989) CR ( 1) C   3           s(100.00%)
                                            1.0000  0.0000  0.0000  0.0000  0.0000
    35. (1.99996) CR ( 1) C   4           s(100.00%)
                                            1.0000  0.0000  0.0000  0.0001  0.0000
    36. (1.99995) CR ( 1) C   5           s(100.00%)
                                            1.0000 -0.0001  0.0000  0.0000 -0.0001
    37. (1.99996) CR ( 1) C   6           s(100.00%)
                                            1.0000  0.0000  0.0000  0.0001  0.0000
    38. (1.99996) CR ( 1) C   7           s(100.00%)
                                            1.0000  0.0000  0.0000 -0.0001  0.0000
    39. (1.99999) CR ( 1) O   8           s(100.00%)
                                            1.0000  0.0000  0.0000  0.0000  0.0000
    40. (1.99996) CR ( 1) C   9           s(100.00%)
                                            1.0000  0.0000 -0.0001  0.0000  0.0000
    41. (1.99997) CR ( 1) C  10           s(100.00%)
                                            1.0000  0.0000  0.0000  0.0000  0.0001
    42. (1.99997) CR ( 1) C  11           s(100.00%)
                                            1.0000  0.0000 -0.0001 -0.0001  0.0000
    43. (1.99163) LP ( 1) O   8           s( 66.05%)p 0.51( 33.95%)
                                            0.0000  0.8127 -0.2002  0.3873  0.3865
    44. (1.97427) LP ( 2) O   8           s(  0.22%)p99.99( 99.78%)
                                            0.0000  0.0474 -0.8638 -0.4994 -0.0467
    45. (0.00951) BD*( 1) C   1 - C   2  
                ( 49.08%)   0.7006* C   1 s( 25.76%)p 2.88( 74.24%)
                                           -0.0001 -0.5076  0.5413 -0.2172  0.6342
                ( 50.92%)  -0.7136* C   2 s( 25.04%)p 2.99( 74.96%)
                                            0.0000 -0.5004 -0.5157  0.2365 -0.6540
    46. (0.00517) BD*( 1) C   1 - H  12  
                ( 48.36%)   0.6954* C   1 s( 24.64%)p 3.06( 75.36%)
                                            0.0000 -0.4964 -0.5594  0.5994  0.2855
                ( 51.64%)  -0.7186* H  12 s(100.00%)
                                           -1.0000
    47. (0.00509) BD*( 1) C   1 - H  13  
                ( 48.16%)   0.6940* C   1 s( 24.73%)p 3.04( 75.27%)
                                            0.0000 -0.4973 -0.4416 -0.6997 -0.2609
                ( 51.84%)  -0.7200* H  13 s(100.00%)
                                           -1.0000
    48. (0.00617) BD*( 1) C   1 - H  14  
                ( 48.07%)   0.6933* C   1 s( 24.86%)p 3.02( 75.14%)
                                            0.0000 -0.4986  0.4463  0.3224 -0.6695
                ( 51.93%)  -0.7206* H  14 s(100.00%)
                                           -1.0000
    49. (0.01586) BD*( 1) C   2 - C   6  
                ( 50.09%)   0.7077* C   2 s( 25.40%)p 2.94( 74.60%)
                                            0.0000  0.5040 -0.5361  0.6241  0.2628
                ( 49.91%)  -0.7065* C   6 s( 25.31%)p 2.95( 74.69%)
                                            0.0001  0.5031  0.5023 -0.6535 -0.2600
    50. (0.01748) BD*( 1) C   2 - C   7  
                ( 50.82%)   0.7129* C   2 s( 25.25%)p 2.96( 74.75%)
                                            0.0000  0.5025 -0.4557 -0.6826 -0.2720
                ( 49.18%)  -0.7013* C   7 s( 25.50%)p 2.92( 74.50%)
                                            0.0001  0.5050  0.4136  0.6841  0.3255
    51. (0.00994) BD*( 1) C   2 - H  15  
                ( 49.02%)   0.7002* C   2 s( 24.31%)p 3.11( 75.69%)
                                            0.0000 -0.4931 -0.4889 -0.2976  0.6552
                ( 50.98%)  -0.7140* H  15 s(100.00%)
                                           -1.0000
    52. (0.02864) BD*( 1) C   3 - C   5  
                ( 49.34%)   0.7024* C   3 s( 26.66%)p 2.75( 73.34%)
                                            0.0000 -0.5163  0.4291 -0.7160  0.1916
                ( 50.66%)  -0.7118* C   5 s( 25.63%)p 2.90( 74.37%)
                                           -0.0001 -0.5063 -0.4276  0.6847 -0.3034
    53. (0.02660) BD*( 1) C   3 - C   7  
                ( 50.68%)   0.7119* C   3 s( 25.53%)p 2.92( 74.47%)
                                            0.0000  0.5053  0.8165  0.0515 -0.2745
                ( 49.32%)  -0.7023* C   7 s( 25.10%)p 2.98( 74.90%)
                                            0.0000  0.5010 -0.8142 -0.0170  0.2929
    54. (0.02305) BD*( 1) C   3 - O   8  
                ( 59.15%)   0.7691* C   3 s( 22.29%)p 3.49( 77.71%)
                                            0.0000  0.4721  0.0087 -0.1009  0.8757
                ( 40.85%)  -0.6392* O   8 s( 16.87%)p 4.93( 83.13%)
                                            0.0000  0.4108  0.0351  0.0632 -0.9089
    55. (0.02231) BD*( 1) C   3 - H  16  
                ( 49.46%)   0.7033* C   3 s( 25.53%)p 2.92( 74.47%)
                                            0.0000 -0.5052  0.3862  0.6889  0.3479
                ( 50.54%)  -0.7109* H  16 s(100.00%)
                                           -1.0000
    56. (0.01770) BD*( 1) C   4 - C   5  
                ( 49.68%)   0.7048* C   4 s( 25.47%)p 2.93( 74.53%)
                                           -0.0001 -0.5047  0.4761  0.7200 -0.0105
                ( 50.32%)  -0.7094* C   5 s( 25.25%)p 2.96( 74.75%)
                                            0.0000 -0.5025 -0.4861 -0.7105 -0.0796
    57. (0.01080) BD*( 1) C   4 - C   6  
                ( 49.87%)   0.7062* C   4 s( 25.38%)p 2.94( 74.62%)
                                            0.0000 -0.5038 -0.6807  0.0893 -0.5244
                ( 50.13%)  -0.7080* C   6 s( 25.19%)p 2.97( 74.81%)
                                            0.0000 -0.5019  0.6901 -0.0620  0.5177
    58. (0.00929) BD*( 1) C   4 - H  17  
                ( 48.43%)   0.6959* C   4 s( 25.16%)p 2.97( 74.84%)
                                            0.0000 -0.5016  0.4800 -0.6728 -0.2557
                ( 51.57%)  -0.7182* H  17 s(100.00%)
                                           -1.0000
    59. (0.00793) BD*( 1) C   4 - H  18  
                ( 48.83%)   0.6988* C   4 s( 23.98%)p 3.17( 76.02%)
                                            0.0000 -0.4897 -0.2822 -0.1448  0.8121
                ( 51.17%)  -0.7153* H  18 s(100.00%)
                                           -1.0000
    60. (0.02203) BD*( 1) C   5 - C   9  
                ( 49.53%)   0.7038* C   5 s( 25.81%)p 2.87( 74.19%)
                                           -0.0001 -0.5080  0.7421 -0.1008 -0.4255
                ( 50.47%)  -0.7104* C   9 s( 25.40%)p 2.94( 74.60%)
                                           -0.0001 -0.5040 -0.7904  0.1413  0.3182
    61. (0.00829) BD*( 1) C   5 - H  19  
                ( 49.13%)   0.7010* C   5 s( 23.31%)p 3.29( 76.69%)
                                            0.0000 -0.4828  0.1735  0.1276  0.8488
                ( 50.87%)  -0.7132* H  19 s(100.00%)
                                           -1.0000
    62. (0.01070) BD*( 1) C   6 - H  20  
                ( 48.07%)   0.6933* C   6 s( 24.80%)p 3.03( 75.20%)
                                            0.0000 -0.4979  0.2617  0.1418 -0.8145
                ( 51.93%)  -0.7206* H  20 s(100.00%)
                                           -1.0000
    63. (0.00776) BD*( 1) C   6 - H  21  
                ( 48.65%)   0.6975* C   6 s( 24.70%)p 3.05( 75.30%)
                                            0.0000 -0.4970 -0.4506 -0.7410  0.0301
                ( 51.35%)  -0.7166* H  21 s(100.00%)
                                           -1.0000
    64. (0.00944) BD*( 1) C   7 - H  22  
                ( 48.69%)   0.6978* C   7 s( 25.10%)p 2.98( 74.90%)
                                            0.0000 -0.5010 -0.4073  0.7271 -0.2331
                ( 51.31%)  -0.7163* H  22 s(100.00%)
                                           -1.0000
    65. (0.00736) BD*( 1) C   7 - H  23  
                ( 48.50%)   0.6964* C   7 s( 24.29%)p 3.12( 75.71%)
                                            0.0000 -0.4929  0.0102 -0.0555  0.8683
                ( 51.50%)  -0.7176* H  23 s(100.00%)
                                           -1.0000
    66. (0.00780) BD*( 1) O   8 - H  24  
                ( 40.51%)   0.6364* O   8 s( 16.85%)p 4.94( 83.15%)
                                            0.0000  0.4105  0.4610 -0.7724  0.1496
                ( 59.49%)  -0.7713* H  24 s(100.00%)
                                            1.0000
    67. (0.01112) BD*( 1) C   9 - C  10  
                ( 50.64%)   0.7116* C   9 s( 25.55%)p 2.91( 74.45%)
                                            0.0000  0.5055  0.0521  0.2183  0.8332
                ( 49.36%)  -0.7025* C  10 s( 25.92%)p 2.86( 74.08%)
                                            0.0001  0.5091  0.0071 -0.2474 -0.8243
    68. (0.01043) BD*( 1) C   9 - C  11  
                ( 51.04%)   0.7145* C   9 s( 25.01%)p 3.00( 74.99%)
                                            0.0000  0.5001 -0.4813 -0.7148 -0.0860
                ( 48.96%)  -0.6997* C  11 s( 25.77%)p 2.88( 74.23%)
                                            0.0001  0.5076  0.5130  0.6857  0.0952
    69. (0.01027) BD*( 1) C   9 - H  25  
                ( 49.16%)   0.7011* C   9 s( 24.04%)p 3.16( 75.96%)
                                            0.0000 -0.4903  0.3753 -0.6492  0.4441
                ( 50.84%)  -0.7130* H  25 s(100.00%)
                                           -1.0000
    70. (0.00471) BD*( 1) C  10 - H  26  
                ( 48.42%)   0.6958* C  10 s( 24.17%)p 3.14( 75.83%)
                                            0.0000 -0.4917  0.8095 -0.2245 -0.2293
                ( 51.58%)  -0.7182* H  26 s(100.00%)
                                           -1.0000
    71. (0.00738) BD*( 1) C  10 - H  27  
                ( 47.39%)   0.6884* C  10 s( 25.03%)p 3.00( 74.97%)
                                            0.0000 -0.5003 -0.2671  0.6496 -0.5063
                ( 52.61%)  -0.7253* H  27 s(100.00%)
                                           -1.0000
    72. (0.00622) BD*( 1) C  10 - H  28  
                ( 48.20%)   0.6943* C  10 s( 24.87%)p 3.02( 75.13%)
                                            0.0000 -0.4987 -0.5228 -0.6829 -0.1076
[...]
 NLMO      Total    Paramagnetic  Diamagnetic   Paramagnetic  Diamagnetic
    8       1.0582        0.5032       0.5549         0.4446       0.6136
   10      25.0780        9.8684      15.2097        14.4043      10.6738
   11       0.4531       -0.1193       0.5724        -0.8342       1.2873
   16      -0.1821       -0.3907       0.2086        -1.0068       0.8247
   20      -0.6026       -1.1268       0.5242        -1.4332       0.8306
   21      -0.9537       -1.3645       0.4108        -1.2880       0.3343
   22      21.1988       11.5048       9.6940         6.7781      14.4207
   27      -0.3052       -1.0761       0.7709        -0.8609       0.5557
   39     271.1729       -0.0040     271.1769        -0.0038     271.1767
   43      34.3267       -3.9519      38.2785        -3.0639      37.3906
   44       5.1089      -34.1000      39.2089       -34.8428      39.9517
 Sum      356.3530      -20.2569     376.6099       -21.7066     378.0596

 Contributions to Isotropic shielding for atom    9 (   211.6136 ppm):
                         Standard Origin              Atomic Origin
 NLMO      Total    Paramagnetic  Diamagnetic   Paramagnetic  Diamagnetic
   10       0.0717       -0.3858       0.4575        -1.3237       1.3954
   14      -0.4397       -0.9128       0.4732        -1.4274       0.9877
   16       5.2543       -8.9716      14.2259        -2.3081       7.5624
   23      -0.0894       -7.1286       7.0392        -7.8061       7.7167
   24      -2.3017       -5.6603       3.3587        -9.7646       7.4629
   25       4.3108       -0.5535       4.8644        -6.4711      10.7819
   26       0.5946       -0.1086       0.7032        -0.4373       1.0319
   27       0.7678       -0.3548       1.1226        -0.2700       1.0378
   28       0.5892       -0.5011       1.0903        -0.4115       1.0007
   29       0.6202       -0.3319       0.9521        -0.4139       1.0341
   30       1.0021       -0.4243       1.4263        -0.0357       1.0378
   31       0.6686       -0.5796       1.2482        -0.3682       1.0368
   40     199.9256       -0.0028     199.9284         0.0032     199.9224
 Sum      210.9742      -25.9159     236.8900       -31.0343     242.0085

 Contributions to Isotropic shielding for atom   10 (   223.4388 ppm):
                         Standard Origin              Atomic Origin
 NLMO      Total    Paramagnetic  Diamagnetic   Paramagnetic  Diamagnetic
   10       0.0886       -0.2998       0.3884        -1.0272       1.1158
   23       3.7652       -8.3086      12.0738        -4.0637       7.8289
   24      -0.3512       -0.1370      -0.2142        -1.0088       0.6576
   25       0.3019       -0.0227       0.3246        -0.7206       1.0225
   26       5.7066        3.2820       2.4246        -5.2671      10.9737
   27       6.6258       -5.7926      12.4184        -4.8005      11.4263
   28       6.8885       -5.0036      11.8921        -4.2208      11.1093
   41     200.0730       -0.0022     200.0751         0.0014     200.0716
 Sum      223.0984      -16.2845     239.3829       -21.1072     244.2057

 Contributions to Isotropic shielding for atom   11 (   221.4332 ppm):
                         Standard Origin              Atomic Origin
 NLMO      Total    Paramagnetic  Diamagnetic   Paramagnetic  Diamagnetic
   10       0.0397       -0.0831       0.1228        -1.0873       1.1269
   23      -0.4414       -0.0152      -0.4262        -1.1533       0.7119
   24       4.2801      -11.1572      15.4373        -3.7189       7.9990
   29       5.1472        2.7027       2.4445        -5.9487      11.0959
   30       6.4633       -5.9563      12.4196        -4.7440      11.2074
   31       5.6477       -2.7350       8.3827        -5.3837      11.0314
   42     200.0743       -0.0033     200.0777         0.0021     200.0723
 Sum      221.2110      -17.2475     238.4585       -22.0338     243.2448

 Contributions to Isotropic shielding for atom   12 (    32.5814 ppm):
                         Standard Origin              Atomic Origin
 NLMO      Total    Paramagnetic  Diamagnetic   Paramagnetic  Diamagnetic
    1       1.3011       -0.0007       1.3018         0.3321       0.9689
    2      26.4781        0.1264      26.3516         0.4605      26.0176
    3       1.9038        2.4156      -0.5118         0.0572       1.8466
    4       2.0087        0.9381       1.0706         0.1633       1.8454
    6      -0.1336        0.4665      -0.6000        -1.0395       0.9060
 Sum       31.5581        3.9459      27.6122        -0.0264      31.5845

 Contributions to Isotropic shielding for atom   13 (    32.3950 ppm):
                         Standard Origin              Atomic Origin
 NLMO      Total    Paramagnetic  Diamagnetic   Paramagnetic  Diamagnetic
    1       1.3393       -0.0988       1.4381         0.3407       0.9986
    2       1.8261        2.3859      -0.5597         0.0004       1.8257
    3      26.3622        0.1448      26.2174         0.4511      25.9111
    4       2.0324        0.8554       1.1770         0.1886       1.8438
    5      -0.1006        0.4852      -0.5858        -1.0857       0.9852
 Sum       31.4595        3.7726      27.6870        -0.1048      31.5643

 Contributions to Isotropic shielding for atom   14 (    32.5409 ppm):
                         Standard Origin              Atomic Origin
 NLMO      Total    Paramagnetic  Diamagnetic   Paramagnetic  Diamagnetic
    1       1.7205       -1.3953       3.1157         0.8370       0.8835
    2       1.9266        1.3301       0.5965         0.1133       1.8133
    3       1.9608        1.2277       0.7331         0.1309       1.8299
    4      26.2646        0.3932      25.8714         0.3996      25.8650
   18      -0.2083       -0.0499      -0.1584        -1.0107       0.8024
 Sum       31.6642        1.5059      30.1583         0.4702      31.1940

 Contributions to Isotropic shielding for atom   15 (    32.4139 ppm):
                         Standard Origin              Atomic Origin
 NLMO      Total    Paramagnetic  Diamagnetic   Paramagnetic  Diamagnetic
    1       0.7965        2.4464      -1.6499        -0.2243       1.0208
    5       1.3508        0.9384       0.4124         0.3731       0.9777
    6       1.2467        0.9763       0.2704         0.2222       1.0244
    7      26.5808       -0.3076      26.8884         0.4718      26.1090
   19       0.0469        0.0124       0.0345        -0.9818       1.0287
   21      -0.1450       -0.1868       0.0419        -1.3236       1.1787
 Sum       29.8766        3.8790      25.9976        -1.4627      31.3393

 Contributions to Isotropic shielding for atom   16 (    31.8672 ppm):
                         Standard Origin              Atomic Origin
 NLMO      Total    Paramagnetic  Diamagnetic   Paramagnetic  Diamagnetic
    8       0.9360        0.4098       0.5262        -0.2670       1.2031
   10       0.7034        0.9125      -0.2091        -0.8639       1.5674
   11      26.8344        0.2993      26.5351         0.8112      26.0233
   17       0.0884       -0.2319       0.3203        -0.9147       1.0031
   30      -0.2042       -1.0692       0.8650        -0.9796       0.7754
 Sum       28.3581        0.3205      28.0376        -2.2141      30.5722

 Contributions to Isotropic shielding for atom   17 (    32.3515 ppm):
                         Standard Origin              Atomic Origin
 NLMO      Total    Paramagnetic  Diamagnetic   Paramagnetic  Diamagnetic
   12       1.3693        0.4170       0.9523         0.4860       0.8833
   13       1.1141        0.9174       0.1967         0.1163       0.9977
   14      26.3777        0.0552      26.3225         0.4789      25.8988
   15       2.0207        1.7692       0.2516         0.2484       1.7724
   16      -0.1696       -0.1056      -0.0640        -1.3532       1.1836
   23       0.0042       -0.3786       0.3828        -0.9983       1.0025
 Sum       30.7165        2.6745      28.0420        -1.0219      31.7383

 Contributions to Isotropic shielding for atom   18 (    32.3873 ppm):
                         Standard Origin              Atomic Origin
 NLMO      Total    Paramagnetic  Diamagnetic   Paramagnetic  Diamagnetic
   12       1.3497        0.4729       0.8768         0.3284       1.0213
   13       1.0907        1.0339       0.0567         0.0764       1.0143
   14       1.9880        1.6704       0.3177         0.1421       1.8459
   15      26.5658       -0.0697      26.6354         0.4335      26.1323
   17      -0.2046       -0.3828       0.1782        -1.3654       1.1608
 Sum       30.7895        2.7247      28.0648        -0.3850      31.1745

 Contributions to Isotropic shielding for atom   19 (    32.3448 ppm):
                         Standard Origin              Atomic Origin
 NLMO      Total    Paramagnetic  Diamagnetic   Paramagnetic  Diamagnetic
    8       1.3474        0.9937       0.3536         0.2970       1.0503
   12       1.0859        1.1138      -0.0279        -0.1004       1.1862
   15      -0.1627       -0.7710       0.6082        -1.3538       1.1911
   16       1.0545        1.4989      -0.4444        -0.1815       1.2359
   17      26.5482       -0.2369      26.7850         0.4269      26.1213
   31      -0.1261       -1.3716       1.2455        -1.0006       0.8745
 Sum       29.7471        1.2270      28.5201        -1.9123      31.6594

 Contributions to Isotropic shielding for atom   20 (    32.3627 ppm):
                         Standard Origin              Atomic Origin
 NLMO      Total    Paramagnetic  Diamagnetic   Paramagnetic  Diamagnetic
    1      -0.0787       -0.6479       0.5692        -1.1257       1.0469
    4      -0.0453       -1.0792       1.0339        -0.9811       0.9358
    5       1.3281        0.4374       0.8907         0.5428       0.7853
   10       0.1121       -0.4301       0.5422        -1.1011       1.2132
   13       1.3631       -0.1619       1.5250         0.4551       0.9079
   18      26.1416        0.2820      25.8596         0.4065      25.7351
   19       1.9551        1.5678       0.3873         0.1740       1.7811
   43      -0.4760        0.1523      -0.6283         0.6351      -1.1111
 Sum       30.2999        0.1204      30.1796        -0.9943      31.2943

 Contributions to Isotropic shielding for atom   21 (    32.3953 ppm):
                         Standard Origin              Atomic Origin
 NLMO      Total    Paramagnetic  Diamagnetic   Paramagnetic  Diamagnetic
    3      -0.0856       -1.1146       1.0290        -0.9444       0.8588
    5       0.9813        1.4544      -0.4731         0.0381       0.9432
    7       0.0862       -0.2531       0.3392        -0.9305       1.0167
   13       1.1285        1.0345       0.0940         0.1727       0.9558
   18       2.1384        1.1547       0.9837         0.3453       1.7932
   19      26.5058       -0.0586      26.5644         0.4595      26.0464
 Sum       30.7546        2.2174      28.5372        -0.8594      31.6140

 Contributions to Isotropic shielding for atom   22 (    32.9131 ppm):
                         Standard Origin              Atomic Origin
 NLMO      Total    Paramagnetic  Diamagnetic   Paramagnetic  Diamagnetic
    1      -0.1983       -0.3523       0.1541        -1.3372       1.1389
    2      -0.0395       -1.2770       1.2375        -0.9848       0.9453
    6       1.1017        1.2269      -0.1252         0.1218       0.9798
    9       1.3639        0.5254       0.8385         0.4819       0.8820
   10      -0.1612        0.2517      -0.4129        -1.2886       1.1275
   20      26.4994        0.0468      26.4526         0.4826      26.0168
   21       2.0368        1.7152       0.3216         0.2902       1.7466
 Sum       30.6028        2.1366      28.4662        -2.2341      32.8370

 Contributions to Isotropic shielding for atom   23 (    32.3501 ppm):
                         Standard Origin              Atomic Origin
 NLMO      Total    Paramagnetic  Diamagnetic   Paramagnetic  Diamagnetic
    6       1.1335        0.8536       0.2799         0.0739       1.0596
    7      -0.0679       -0.6743       0.6064        -1.2022       1.1343
    9       1.4414        0.3327       1.1088         0.5369       0.9046
   20       1.8751        1.6927       0.1824         0.0839       1.7912
   21      26.4066        0.0660      26.3406         0.4433      25.9633
 Sum       30.7887        2.2707      28.5180        -0.0643      30.8530

 Contributions to Isotropic shielding for atom   24 (    35.3228 ppm):
                         Standard Origin              Atomic Origin
 NLMO      Total    Paramagnetic  Diamagnetic   Paramagnetic  Diamagnetic
    9      -0.1483       -0.0171      -0.1313        -1.1238       0.9755
   10       1.5087        2.7068      -1.1981         0.7987       0.7100
   11       0.2304        0.0447       0.1857        -0.7972       1.0276
   22      23.0360       -0.5802      23.6162        -0.1348      23.1708
   43       4.0662        0.5421       3.5242         2.1327       1.9335
   44       5.6557        2.4895       3.1662         2.4876       3.1681
 Sum       34.3487        5.1858      29.1629         3.3632      30.9855

 Contributions to Isotropic shielding for atom   25 (    32.4008 ppm):
                         Standard Origin              Atomic Origin
 NLMO      Total    Paramagnetic  Diamagnetic   Paramagnetic  Diamagnetic
   16       1.5599        0.3435       1.2164         0.5318       1.0281
   23       0.9881        1.5816      -0.5935        -0.1119       1.1000
   24       0.7907        2.1945      -1.4038        -0.2217       1.0124
   25      26.6355       -0.2014      26.8368         0.4789      26.1566
   26       0.1969       -0.2362       0.4331        -0.8202       1.0171
 Sum       30.1711        3.6821      26.4891        -0.1431      30.3142

 Contributions to Isotropic shielding for atom   26 (    32.5799 ppm):
                         Standard Origin              Atomic Origin
 NLMO      Total    Paramagnetic  Diamagnetic   Paramagnetic  Diamagnetic
   23       1.1016        1.1023      -0.0007         0.0697       1.0320
   24      -0.1227        0.4337      -0.5565        -1.0336       0.9109
   26      26.4721       -0.0372      26.5093         0.4069      26.0652
   27       2.0468        1.5091       0.5377         0.1366       1.9102
   28       2.0542        1.5582       0.4960         0.1809       1.8732
 Sum       31.5519        4.5661      26.9858        -0.2395      31.7914

 Contributions to Isotropic shielding for atom   27 (    32.0604 ppm):
                         Standard Origin              Atomic Origin
 NLMO      Total    Paramagnetic  Diamagnetic   Paramagnetic  Diamagnetic
   23       1.4613       -0.4472       1.9085         0.5504       0.9109
   24      -0.1134       -0.0939      -0.0195        -1.0175       0.9041
   26       1.9527        1.8654       0.0872         0.0892       1.8635
   27      25.9347        0.3137      25.6210         0.4014      25.5333
   28       2.1076        0.2400       1.8676         0.2778       1.8299
   43      -0.8952       -0.0742      -0.8209         0.4545      -1.3497
 Sum       30.4477        1.8037      28.6440         0.7557      29.6920

 Contributions to Isotropic shielding for atom   28 (    32.4380 ppm):
                         Standard Origin              Atomic Origin
 NLMO      Total    Paramagnetic  Diamagnetic   Paramagnetic  Diamagnetic
   12      -0.0965       -0.0575      -0.0390        -1.0642       0.9677
   23       1.4570       -0.4749       1.9318         0.4760       0.9809
   26       1.9303        1.8731       0.0572         0.0884       1.8419
   27       2.1390        0.2113       1.9278         0.2581       1.8810
   28      26.3378        0.2730      26.0649         0.3673      25.9705
 Sum       31.7677        1.8250      29.9427         0.1256      31.6421

 Contributions to Isotropic shielding for atom   29 (    32.3779 ppm):
                         Standard Origin              Atomic Origin
 NLMO      Total    Paramagnetic  Diamagnetic   Paramagnetic  Diamagnetic
   23      -0.1523        0.6504      -0.8027        -1.1166       0.9643
   24       1.2440        0.4468       0.7972         0.2235       1.0205
   29      26.3711        0.0138      26.3573         0.4387      25.9323
   30       1.9978        1.4139       0.5839         0.1329       1.8649
   31       1.9256        2.0846      -0.1590         0.0892       1.8364
 Sum       31.3862        4.6095      26.7768        -0.2322      31.6185

 Contributions to Isotropic shielding for atom   30 (    32.2839 ppm):
                         Standard Origin              Atomic Origin
 NLMO      Total    Paramagnetic  Diamagnetic   Paramagnetic  Diamagnetic
    8      -0.1141        0.1101      -0.2241        -1.1454       1.0314
   10      -0.0096        0.0340      -0.0436        -1.3063       1.2967
   23      -0.1153        0.1564      -0.2717        -1.0112       0.8959
   24       1.6117       -1.1801       2.7918         0.6823       0.9294
   29       1.9194        1.8266       0.0928         0.0751       1.8443
   30      26.2234        0.3402      25.8832         0.4024      25.8210
   31       2.0182        0.7931       1.2251         0.2114       1.8068
 Sum       31.5338        2.0803      29.4535        -2.0917      33.6255

 Contributions to Isotropic shielding for atom   31 (    32.5257 ppm):
                         Standard Origin              Atomic Origin
 NLMO      Total    Paramagnetic  Diamagnetic   Paramagnetic  Diamagnetic
   16      -0.0406        0.1747      -0.2152        -1.0034       0.9628
   24       1.4858       -0.5082       1.9940         0.4743       1.0115
   29       1.9186        2.3724      -0.4538         0.0773       1.8413
   30       2.0608        0.6198       1.4409         0.2224       1.8384
   31      26.4474        0.2283      26.2191         0.4158      26.0316
 Sum       31.8719        2.8869      28.9851         0.1865      31.6855
 
 1\1\GINC-COMPUTE-9-6\SP\RHF\STO-3G\C10H20O1\YTSAI.IQUIR\03-Aug-2021\0\
 \# rhf/STO-3G nmr pop=nbo\\comment\\0,1\C,0,-1.976482153,-0.878808768,
 -2.505382015\C,0,-1.981862117,-0.435736987,-1.041183737\C,0,0.08148763
 9,-1.121236778,0.32224318\C,0,-0.926655409,1.24097992,0.536215605\C,0,
 0.087008143,0.216594954,1.101658861\C,0,-1.336241959,0.951632679,-0.90
 26401\C,0,-1.336635907,-1.491430581,-0.120845537\O,0,0.927000272,-1.07
 5804963,-0.819144694\C,0,1.484640701,0.851861077,1.365678856\C,0,2.171
 079557,1.472678475,0.145008165\C,0,2.437465716,-0.133286908,2.05044878
 6\H,0,-2.510638434,-1.827207327,-2.626067317\H,0,-2.473081369,-0.13443
 9684,-3.136910023\H,0,-0.956874673,-1.014607616,-2.880243151\H,0,-3.03
 5351177,-0.350475615,-0.741307962\H,0,0.46831078,-1.913015731,0.974494
 07\H,0,-0.55025374,2.266449793,0.62091054\H,0,-1.831500826,1.212297113
 ,1.158950116\H,0,-0.30364833,-0.03119796,2.101563223\H,0,-0.45930157,1
 .040297661,-1.555325216\H,0,-2.046245393,1.71561607,-1.242496476\H,0,-
 1.330889158,-2.469831814,-0.616533009\H,0,-1.96052181,-1.602935844,0.7
 75772417\H,0,0.895066781,-1.949087572,-1.245440561\H,0,1.320187944,1.6
 73219716,2.077828505\H,0,3.053586216,2.040650438,0.461797896\H,0,2.519
 007652,0.71987506,-0.566638606\H,0,1.515464411,2.169141761,-0.38428023
 9\H,0,3.355197246,0.375357612,2.365370711\H,0,2.725131551,-0.951426625
 ,1.382562399\H,0,1.975549416,-0.566121558,2.943935313\\Version=EM64L-G
 09RevC.01\State=1-A\HF=-459.6089257\RMSD=6.399e-09\Dipole=-0.3058896,-
 0.3923938,0.1564481\Quadrupole=-1.3491765,1.9437169,-0.5945403,-0.2894
 11,-0.0220528,0.8806009\PG=C01 [X(C10H20O1)]\\@


 BOOKS ARE LIGHTHOUSES ERECTED IN THE GREAT SEA OF TIME.
     -- E.P.WHIPPLE
 Job cpu time:  0 days  0 hours  0 minutes 23.2 seconds.
 File lengths (MBytes):  RWF=      5 Int=      0 D2E=      0 Chk=      1 Scr=      1
 Normal termination of Gaussian 09 at Tue Aug  3 16:35:18 2021.
