 Entering Gaussian System, Link 0=g09
 Input=/home/ytsai.iquir/menthol/02_menthol_M0034_MMFF_NMR_rhf_STO-3G_nbo.gjc
 Output=/home/ytsai.iquir/menthol/02_menthol_M0034_MMFF_NMR_rhf_STO-3G_nbo.log
 Initial command:
 /share/apps/Gaussian09/EM64T.SSE4.2-enabled/g09/l1.exe /tmp/Gau-8516.inp -scrdir=/tmp/
 Entering Link 1 = /share/apps/Gaussian09/EM64T.SSE4.2-enabled/g09/l1.exe PID=      8520.
  
 Copyright (c) 1988,1990,1992,1993,1995,1998,2003,2009,2011,
            Gaussian, Inc.  All Rights Reserved.
  
 This is part of the Gaussian(R) 09 program.  It is based on
 the Gaussian(R) 03 system (copyright 2003, Gaussian, Inc.),
 the Gaussian(R) 98 system (copyright 1998, Gaussian, Inc.),
 the Gaussian(R) 94 system (copyright 1995, Gaussian, Inc.),
 the Gaussian 92(TM) system (copyright 1992, Gaussian, Inc.),
 the Gaussian 90(TM) system (copyright 1990, Gaussian, Inc.),
 the Gaussian 88(TM) system (copyright 1988, Gaussian, Inc.),
 the Gaussian 86(TM) system (copyright 1986, Carnegie Mellon
 University), and the Gaussian 82(TM) system (copyright 1983,
 Carnegie Mellon University). Gaussian is a federally registered
 trademark of Gaussian, Inc.
  
 This software contains proprietary and confidential information,
 including trade secrets, belonging to Gaussian, Inc.
  
 This software is provided under written license and may be
 used, copied, transmitted, or stored only in accord with that
 written license.
  
 The following legend is applicable only to US Government
 contracts under FAR:
  
                    RESTRICTED RIGHTS LEGEND
  
 Use, reproduction and disclosure by the US Government is
 subject to restrictions as set forth in subparagraphs (a)
 and (c) of the Commercial Computer Software - Restricted
 Rights clause in FAR 52.227-19.
  
 Gaussian, Inc.
 340 Quinnipiac St., Bldg. 40, Wallingford CT 06492
  
  
 ---------------------------------------------------------------
 Warning -- This program may not be used in any manner that
 competes with the business of Gaussian, Inc. or will provide
 assistance to any competitor of Gaussian, Inc.  The licensee
 of this program is prohibited from giving any competitor of
 Gaussian, Inc. access to this program.  By using this program,
 the user acknowledges that Gaussian, Inc. is engaged in the
 business of creating and licensing software in the field of
 computational chemistry and represents and warrants to the
 licensee that it is not a competitor of Gaussian, Inc. and that
 it will not use this program in any manner prohibited above.
 ---------------------------------------------------------------
  

 Cite this work as:
 Gaussian 09, Revision C.01,
 M. J. Frisch, G. W. Trucks, H. B. Schlegel, G. E. Scuseria, 
 M. A. Robb, J. R. Cheeseman, G. Scalmani, V. Barone, B. Mennucci, 
 G. A. Petersson, H. Nakatsuji, M. Caricato, X. Li, H. P. Hratchian, 
 A. F. Izmaylov, J. Bloino, G. Zheng, J. L. Sonnenberg, M. Hada, 
 M. Ehara, K. Toyota, R. Fukuda, J. Hasegawa, M. Ishida, T. Nakajima, 
 Y. Honda, O. Kitao, H. Nakai, T. Vreven, J. A. Montgomery, Jr., 
 J. E. Peralta, F. Ogliaro, M. Bearpark, J. J. Heyd, E. Brothers, 
 K. N. Kudin, V. N. Staroverov, T. Keith, R. Kobayashi, J. Normand, 
 K. Raghavachari, A. Rendell, J. C. Burant, S. S. Iyengar, J. Tomasi, 
 M. Cossi, N. Rega, J. M. Millam, M. Klene, J. E. Knox, J. B. Cross, 
 V. Bakken, C. Adamo, J. Jaramillo, R. Gomperts, R. E. Stratmann, 
 O. Yazyev, A. J. Austin, R. Cammi, C. Pomelli, J. W. Ochterski, 
 R. L. Martin, K. Morokuma, V. G. Zakrzewski, G. A. Voth, 
 P. Salvador, J. J. Dannenberg, S. Dapprich, A. D. Daniels, 
 O. Farkas, J. B. Foresman, J. V. Ortiz, J. Cioslowski, 
 and D. J. Fox, Gaussian, Inc., Wallingford CT, 2010.
 
 ******************************************
 Gaussian 09:  EM64L-G09RevC.01 23-Sep-2011
                 3-Aug-2021 
 ******************************************
 %nprocshared=4
 Will use up to    4 processors via shared memory.
 ------------------------
 # rhf/STO-3G nmr pop=nbo
 ------------------------
 1/38=1/1;
 2/12=2,17=6,18=5,40=1/2;
 3/6=3,11=1,16=1,25=1,30=1,116=1/1,2,8,3;
 4//1;
 5/5=2,38=5/2;
 8/6=1,10=90,11=11/1;
 10/13=100,45=16/2;
 6/7=2,8=2,9=2,10=2,28=1,64=1/1,7;
 99/9=1/99;
 -------
 comment
 -------
 Charge =  0 Multiplicity = 1
 Symbolic Z-Matrix:
 6                     2.23132   0.84793  -1.96138 
 6                     0.72934   0.6596   -2.18656 
 6                     0.08686  -1.30549  -0.61655 
 6                    -0.20278   1.10162   0.15673 
 6                    -0.76504  -0.32927   0.22726 
 6                    -0.10066   1.58656  -1.29014 
 6                     0.27872  -0.80562  -2.05432 
 8                     1.35154  -1.5901   -0.03572 
 6                    -1.02259  -0.83482   1.67819 
 6                    -2.29441  -0.19525   2.25496 
 6                     0.12631  -0.61624   2.66685 
 1                     2.53028   1.86291  -2.24653 
 1                     2.52755   0.70804  -0.92016 
 1                     2.80836   0.15068  -2.57768 
 1                     0.54433   0.95776  -3.22782 
 1                    -0.43695  -2.26763  -0.66782 
 1                     0.7827    1.16161   0.63024 
 1                    -0.85549   1.79021   0.70486 
 1                    -1.74683  -0.30225  -0.26983 
 1                     0.31247   2.60219  -1.30831 
 1                    -1.1146    1.65975  -1.70498 
 1                     0.98595  -1.4555   -2.58415 
 1                    -0.68538  -0.90165  -2.57177 
 1                     1.75866  -0.75826   0.25049 
 1                    -1.21276  -1.91521   1.62601 
 1                    -2.18133   0.88526   2.38774 
 1                    -3.1533   -0.37104   1.59874 
 1                    -2.53474  -0.62797   3.23235 
 1                     0.34205   0.4469    2.8124 
 1                     1.04439  -1.11403   2.34922 
 1                    -0.134    -1.03067   3.64769 
 
                          Input orientation:                          
 ---------------------------------------------------------------------
 Center     Atomic      Atomic             Coordinates (Angstroms)
 Number     Number       Type             X           Y           Z
 ---------------------------------------------------------------------
      1          6           0        2.231321    0.847934   -1.961375
      2          6           0        0.729339    0.659598   -2.186562
      3          6           0        0.086859   -1.305494   -0.616546
      4          6           0       -0.202778    1.101622    0.156731
      5          6           0       -0.765035   -0.329273    0.227262
      6          6           0       -0.100661    1.586562   -1.290139
      7          6           0        0.278722   -0.805621   -2.054321
      8          8           0        1.351542   -1.590100   -0.035719
      9          6           0       -1.022590   -0.834818    1.678187
     10          6           0       -2.294408   -0.195254    2.254958
     11          6           0        0.126311   -0.616239    2.666846
     12          1           0        2.530280    1.862907   -2.246531
     13          1           0        2.527549    0.708039   -0.920156
     14          1           0        2.808355    0.150676   -2.577675
     15          1           0        0.544326    0.957763   -3.227818
     16          1           0       -0.436947   -2.267628   -0.667824
     17          1           0        0.782705    1.161611    0.630236
     18          1           0       -0.855491    1.790209    0.704856
     19          1           0       -1.746828   -0.302254   -0.269834
     20          1           0        0.312472    2.602188   -1.308314
     21          1           0       -1.114597    1.659747   -1.704984
     22          1           0        0.985952   -1.455498   -2.584147
     23          1           0       -0.685377   -0.901651   -2.571768
     24          1           0        1.758663   -0.758257    0.250487
     25          1           0       -1.212755   -1.915211    1.626012
     26          1           0       -2.181334    0.885263    2.387739
     27          1           0       -3.153296   -0.371044    1.598737
     28          1           0       -2.534736   -0.627974    3.232350
     29          1           0        0.342046    0.446900    2.812400
     30          1           0        1.044389   -1.114031    2.349218
     31          1           0       -0.134000   -1.030672    3.647693
 ---------------------------------------------------------------------
                    Distance matrix (angstroms):
                    1          2          3          4          5
     1  C    0.000000
     2  C    1.530402   0.000000
     3  C    3.323332   2.596020   0.000000
     4  C    3.236599   2.560322   2.544810   0.000000
     5  C    3.892827   3.006255   1.546203   1.539016   0.000000
     6  C    2.536586   1.533537   2.975379   1.529387   2.532652
     7  C    2.560376   1.538639   1.534237   2.959421   2.553813
     8  O    3.228959   3.174021   1.420487   3.114212   2.477649
     9  C    5.163914   4.498758   2.591951   2.595520   1.557913
    10  C    6.272793   5.440673   3.892120   3.234094   2.543323
    11  C    5.291059   5.054402   3.355189   3.059416   2.613124
    12  H    1.095838   2.166780   4.320408   3.718176   4.667377
    13  H    1.091540   2.199930   3.178594   2.961297   3.637815
    14  H    1.094972   2.175840   3.656912   4.177104   4.568057
    15  H    2.112319   1.098793   3.485736   3.469010   3.912604
    16  H    4.301123   3.497920   1.096679   3.476575   2.160102
    17  H    2.985520   2.861681   2.850487   1.094980   2.186464
    18  H    4.186297   3.485723   3.495355   1.095731   2.174507
    19  H    4.473244   3.275730   2.118752   2.130003   1.100796
    20  H    2.680648   2.172269   3.974849   2.159522   3.480299
    21  H    3.452528   2.152282   3.379476   2.146835   2.794991
    22  H    2.691578   2.167385   2.168484   3.932474   3.498337
    23  H    3.455540   2.141799   2.140638   3.419168   2.858064
    24  H    2.774092   3.001504   1.961158   2.704661   2.560004
    25  H    5.689111   4.993706   2.662671   3.504301   2.161516
    26  H    6.195782   5.426525   4.355439   2.989798   2.854586
    27  H    6.569201   5.519562   4.034759   3.599122   2.754355
    28  H    7.201971   6.455745   4.705932   4.229535   3.500231
    29  H    5.149672   5.018452   3.859233   2.788920   2.917364
    30  H    4.882554   4.880402   3.122383   3.357313   2.896991
    31  H    6.370679   6.135219   4.278790   4.091238   3.548171
                    6          7          8          9         10
     6  C    0.000000
     7  C    2.539773   0.000000
     8  O    3.711286   2.416838   0.000000
     9  C    3.940050   3.952959   3.023975   0.000000
    10  C    4.533774   5.056029   4.526118   1.535978   0.000000
    11  C    4.534488   4.727422   3.123052   1.531404   2.491337
    12  H    2.812988   3.496784   4.266190   5.941719   6.912094
    13  H    2.795743   2.938489   2.728858   4.662111   5.843677
    14  H    3.490257   2.754532   3.407954   5.810310   7.036491
    15  H    2.136820   2.134752   4.163257   5.453206   6.280820
    16  H    3.918564   2.138229   2.014273   2.810638   4.035784
    17  H    2.156097   3.366132   2.887731   2.888429   3.734894
    18  H    2.142719   3.954470   4.104380   2.804650   2.900924
    19  H    2.705275   2.746020   3.363518   2.145444   2.585704
    20  H    1.096587   3.488671   4.502715   4.744954   5.226702
    21  H    1.097962   2.853317   4.407925   4.204423   4.529252
    22  H    3.479844   1.096918   2.578034   4.752575   5.980461
    23  H    2.859313   1.098389   3.324837   4.263835   5.136658
    24  H    3.365826   2.739453   0.969342   3.127228   4.556562
    25  H    4.690747   4.123172   3.072893   1.098240   2.126921
    26  H    4.283434   5.351903   4.947907   2.191993   1.094502
    27  H    4.636421   5.031147   4.944806   2.182042   1.095087
    28  H    5.593013   5.991327   5.168087   2.178255   1.095582
    29  H    4.280846   5.025714   3.644206   2.188944   2.770198
    30  H    4.674319   4.480237   2.451308   2.191038   3.464189
    31  H    5.588668   5.721360   4.010900   2.169541   2.702776
                   11         12         13         14         15
    11  C    0.000000
    12  H    6.005540   0.000000
    13  H    4.515113   1.758693   0.000000
    14  H    5.940247   1.765989   1.771123   0.000000
    15  H    6.115496   2.392953   3.053006   2.489960   0.000000
    16  H    3.763558   5.325230   4.207910   4.475234   4.233157
    17  H    2.781975   3.438259   2.377798   3.926315   3.870783
    18  H    3.256429   4.492150   3.905985   5.185253   4.256569
    19  H    3.497331   5.185451   4.440035   5.126497   3.948000
    20  H    5.118088   2.519019   2.940244   3.721642   2.538185
    21  H    5.082604   3.690485   3.845379   4.292836   2.358778
    22  H    5.386675   3.675697   3.134690   2.429196   2.536371
    23  H    5.308801   4.253118   3.954974   3.648779   2.323789
    24  H    2.919510   3.701485   2.027712   3.150637   4.064227
    25  H    2.136296   6.578836   5.230133   6.173185   5.907706
    26  H    2.767243   6.680685   5.757357   7.077567   6.242513
    27  H    3.457860   7.216623   6.307237   7.297663   6.223646
    28  H    2.720497   7.866195   6.682437   7.931666   7.330004
    29  H    1.094528   5.690890   4.333197   5.934926   6.065158
    30  H    1.091583   5.673706   4.025979   5.383804   5.970404
    31  H    1.096165   7.086118   5.565268   6.986291   7.189344
                   16         17         18         19         20
    16  H    0.000000
    17  H    3.864220   0.000000
    18  H    4.304122   1.756242   0.000000
    19  H    2.395179   3.058032   2.474449   0.000000
    20  H    4.968598   2.460560   2.465016   3.708765   0.000000
    21  H    4.118154   3.049778   2.427239   2.511736   1.755582
    22  H    2.521208   4.150039   4.974240   3.762194   4.306523
    23  H    2.356398   4.082296   4.243973   2.604776   3.856021
    24  H    2.818191   2.186915   3.678985   3.573113   3.976672
    25  H    2.446990   3.800035   3.834879   2.545800   5.598525
    26  H    4.724413   3.456980   2.325700   2.943074   4.777835
    27  H    4.014085   4.333488   3.278710   2.339752   5.413187
    28  H    4.722345   4.580287   3.880167   3.604467   6.257649
    29  H    4.481903   2.338126   2.771338   3.797998   4.650422
    30  H    3.553546   2.863901   3.840323   3.912711   5.265314
    31  H    4.499503   3.840769   4.139832   4.298701   6.161089
                   21         22         23         24         25
    21  H    0.000000
    22  H    3.858755   0.000000
    23  H    2.737938   1.760749   0.000000
    24  H    4.233939   3.019665   3.736176   0.000000
    25  H    4.887279   4.771906   4.350493   3.472742   0.000000
    26  H    4.299783   6.342753   5.479750   4.774158   3.059579
    27  H    4.381207   5.983805   4.874964   5.108331   2.480099
    28  H    5.623854   6.849210   6.097771   5.228935   2.446412
    29  H    4.898936   5.758164   5.644772   3.165851   3.066674
    30  H    5.365783   4.945514   5.220469   2.245314   2.501923
    31  H    6.070510   6.345912   6.245187   3.898384   2.456281
                   26         27         28         29         30
    26  H    0.000000
    27  H    1.773567   0.000000
    28  H    1.768657   1.765594   0.000000
    29  H    2.596140   3.789383   3.099611   0.000000
    30  H    3.795254   4.328488   3.718375   1.773226   0.000000
    31  H    3.074064   3.708029   2.469456   1.762826   1.755445
                   31
    31  H    0.000000
 Stoichiometry    C10H20O
 Framework group  C1[X(C10H20O)]
 Deg. of freedom    87
 Full point group                 C1      NOp   1
 Largest Abelian subgroup         C1      NOp   1
 Largest concise Abelian subgroup C1      NOp   1
                         Standard orientation:                         
 ---------------------------------------------------------------------
 Center     Atomic      Atomic             Coordinates (Angstroms)
 Number     Number       Type             X           Y           Z
 ---------------------------------------------------------------------
      1          6           0        2.861769   -0.166021    1.023858
      2          6           0        2.287246    0.529772   -0.212235
      3          6           0        0.249003   -0.931951   -0.881750
      4          6           0       -0.073026    1.125052    0.581498
      5          6           0       -0.689546    0.241619   -0.517601
      6          6           0        1.304756    1.644247    0.167759
      7          6           0        1.665556   -0.450761   -1.221921
      8          8           0        0.311776   -1.931485    0.125610
      9          6           0       -2.150303   -0.209786   -0.218410
     10          6           0       -3.131972    0.947958   -0.453320
     11          6           0       -2.391300   -0.778629    1.182852
     12          1           0        3.450842    0.543737    1.615547
     13          1           0        2.091140   -0.569653    1.683154
     14          1           0        3.528464   -0.985346    0.735434
     15          1           0        3.143249    1.003274   -0.712636
     16          1           0       -0.152227   -1.434089   -1.770331
     17          1           0        0.013927    0.576730    1.525301
     18          1           0       -0.720113    1.986949    0.779075
     19          1           0       -0.737374    0.862724   -1.425176
     20          1           0        1.722018    2.259742    0.973713
     21          1           0        1.180434    2.311285   -0.695448
     22          1           0        2.331190   -1.312767   -1.352705
     23          1           0        1.619259    0.061299   -2.192545
     24          1           0        0.430495   -1.501339    0.986136
     25          1           0       -2.412278   -0.992779   -0.942580
     26          1           0       -2.976028    1.763672    0.259581
     27          1           0       -3.024836    1.352993   -1.465093
     28          1           0       -4.166688    0.604324   -0.345722
     29          1           0       -2.199853   -0.035181    1.962997
     30          1           0       -1.773896   -1.656116    1.383806
     31          1           0       -3.435033   -1.096584    1.288230
 ---------------------------------------------------------------------
 Rotational constants (GHZ):      1.8033402      0.7417516      0.6680522
 Standard basis: STO-3G (5D, 7F)
 There are    75 symmetry adapted basis functions of A   symmetry.
 Integral buffers will be    131072 words long.
 Raffenetti 1 integral format.
 Two-electron integral symmetry is turned on.
    75 basis functions,   225 primitive gaussians,    75 cartesian basis functions
    44 alpha electrons       44 beta electrons
       nuclear repulsion energy       702.5187965696 Hartrees.
 NAtoms=   31 NActive=   31 NUniq=   31 SFac= 1.00D+00 NAtFMM=   60 NAOKFM=F Big=F
 One-electron integrals computed using PRISM.
 NBasis=    75 RedAO= T  NBF=    75
 NBsUse=    75 1.00D-06 NBFU=    75
 Harris functional with IExCor=  205 diagonalized for initial guess.
 ExpMin= 1.69D-01 ExpMax= 1.31D+02 ExpMxC= 1.31D+02 IAcc=1 IRadAn=         1 AccDes= 0.00D+00
 HarFok:  IExCor=  205 AccDes= 0.00D+00 IRadAn=         1 IDoV= 1
 ScaDFX=  1.000000  1.000000  1.000000  1.000000
 FoFCou: FMM=F IPFlag=           0 FMFlag=      100000 FMFlg1=           0
         NFxFlg=           0 DoJE=T BraDBF=F KetDBF=T FulRan=T
         Omega=  0.000000  0.000000  1.000000  0.000000  0.000000 ICntrl=     500 IOpCl=  0
         NMat0=    1 NMatS0=    1 NMatT0=    0 NMatD0=    1 NMtDS0=    0 NMtDT0=    0
         I1Cent=           4 NGrid=           0.
 Petite list used in FoFCou.
 Initial guess orbital symmetries:
       Occupied  (A) (A) (A) (A) (A) (A) (A) (A) (A) (A) (A) (A)
                 (A) (A) (A) (A) (A) (A) (A) (A) (A) (A) (A) (A)
                 (A) (A) (A) (A) (A) (A) (A) (A) (A) (A) (A) (A)
                 (A) (A) (A) (A) (A) (A) (A) (A)
       Virtual   (A) (A) (A) (A) (A) (A) (A) (A) (A) (A) (A) (A)
                 (A) (A) (A) (A) (A) (A) (A) (A) (A) (A) (A) (A)
                 (A) (A) (A) (A) (A) (A) (A)
 The electronic state of the initial guess is 1-A.
 Requested convergence on RMS density matrix=1.00D-08 within 128 cycles.
 Requested convergence on MAX density matrix=1.00D-06.
 Requested convergence on             energy=1.00D-06.
 No special actions if energy rises.
 Keep R1 ints in memory in canonical form, NReq=4898789.
 SCF Done:  E(RHF) =  -459.614595153     A.U. after   10 cycles
             Convg  =    0.7665D-08             -V/T =  2.0089
 Range of M.O.s used for correlation:     1    75
 NBasis=    75 NAE=    44 NBE=    44 NFC=     0 NFV=     0
 NROrb=     75 NOA=    44 NOB=    44 NVA=    31 NVB=    31
          Differentiating once with respect to magnetic field using GIAOs.
          Electric field/nuclear overlap derivatives assumed to be zero.
          Keep R3 ints in memory in canonical form, NReq=4863575.
 FoFCou: FMM=F IPFlag=           0 FMFlag=           0 FMFlg1=           0
         NFxFlg=           0 DoJE=F BraDBF=F KetDBF=T FulRan=T
         Omega=  0.000000  0.000000  1.000000  0.000000  0.000000 ICntrl=    6100 IOpCl=  0
         NMat0=    1 NMatS0=    1 NMatT0=    0 NMatD0=    1 NMtDS0=    0 NMtDT0=    0
         I1Cent=           7 NGrid=          31.
 Symmetry not used in FoFCou.
          There are     3 degrees of freedom in the 1st order CPHF.  IDoFFX=0.
      3 vectors produced by pass  0 Test12= 4.55D-14 3.33D-08 XBig12= 6.64D+00 4.25D-01.
 AX will form     3 AO Fock derivatives at one time.
      3 vectors produced by pass  1 Test12= 4.55D-14 3.33D-08 XBig12= 9.88D-03 1.79D-02.
      3 vectors produced by pass  2 Test12= 4.55D-14 3.33D-08 XBig12= 6.65D-05 2.44D-03.
      3 vectors produced by pass  3 Test12= 4.55D-14 3.33D-08 XBig12= 1.85D-06 3.23D-04.
      3 vectors produced by pass  4 Test12= 4.55D-14 3.33D-08 XBig12= 1.94D-08 2.45D-05.
      3 vectors produced by pass  5 Test12= 4.55D-14 3.33D-08 XBig12= 2.92D-10 3.67D-06.
      3 vectors produced by pass  6 Test12= 4.55D-14 3.33D-08 XBig12= 3.58D-12 4.55D-07.
      1 vectors produced by pass  7 Test12= 4.55D-14 3.33D-08 XBig12= 5.66D-14 4.95D-08.
 Inverted reduced A of dimension    22 with in-core refinement.
 Calculating GIAO nuclear magnetic shielding tensors.
 SCF GIAO Magnetic shielding tensor (ppm):
      1  C    Isotropic =   221.6976   Anisotropy =    25.2103
   XX=   217.9367   YX=    -5.3149   ZX=     9.8858
   XY=    -7.7332   YY=   219.2473   ZY=    -4.6770
   XZ=    13.5544   YZ=    -4.2987   ZZ=   227.9087
   Eigenvalues:   209.1020   217.4864   238.5044
      2  C    Isotropic =   217.1079   Anisotropy =     3.8308
   XX=   216.3240   YX=    -2.1154   ZX=     3.0683
   XY=    -0.9252   YY=   217.3220   ZY=     1.6120
   XZ=     2.0445   YZ=     1.1321   ZZ=   217.6777
   Eigenvalues:   213.3151   218.3468   219.6618
      3  C    Isotropic =   188.4260   Anisotropy =    31.7715
   XX=   183.2571   YX=    -1.8912   ZX=    -1.5676
   XY=    -6.5699   YY=   189.2977   ZY=   -19.4373
   XZ=     1.2994   YZ=   -17.0154   ZZ=   192.7232
   Eigenvalues:   171.7847   183.8863   209.6069
      4  C    Isotropic =   223.3625   Anisotropy =    14.8760
   XX=   230.4342   YX=     5.3239   ZX=    -0.5713
   XY=     6.0907   YY=   220.4264   ZY=     5.0467
   XZ=     0.9844   YZ=     3.0118   ZZ=   219.2268
   Eigenvalues:   214.8048   222.0028   233.2798
      5  C    Isotropic =   209.6919   Anisotropy =    16.7742
   XX=   220.1733   YX=    -0.9191   ZX=    -1.2513
   XY=     5.4888   YY=   205.7981   ZY=    -1.4389
   XZ=    -3.2913   YZ=    -1.5949   ZZ=   203.1042
   Eigenvalues:   202.3401   205.8608   220.8747
      6  C    Isotropic =   217.1362   Anisotropy =    11.2553
   XX=   223.4815   YX=    -2.4248   ZX=    -0.1202
   XY=    -2.6019   YY=   218.3679   ZY=    -0.5343
   XZ=    -1.8253   YZ=     3.1433   ZZ=   209.5592
   Eigenvalues:   209.3430   217.4259   224.6397
      7  C    Isotropic =   215.2481   Anisotropy =     9.7184
   XX=   220.1747   YX=     2.3806   ZX=    -0.0743
   XY=     2.9391   YY=   214.2450   ZY=     4.4612
   XZ=     0.5162   YZ=     5.7964   ZZ=   211.3247
   Eigenvalues:   207.2883   216.7289   221.7271
      8  O    Isotropic =   363.9948   Anisotropy =    70.1345
   XX=   354.3551   YX=     7.6391   ZX=    -0.0856
   XY=     9.6588   YY=   360.5067   ZY=    59.3953
   XZ=     2.2379   YZ=    21.3681   ZZ=   377.1225
   Eigenvalues:   326.2729   354.9604   410.7511
      9  C    Isotropic =   212.9104   Anisotropy =    17.6447
   XX=   224.3619   YX=     1.8328   ZX=     0.4923
   XY=     2.1668   YY=   207.6310   ZY=    -2.4537
   XZ=    -2.2585   YZ=    -2.3415   ZZ=   206.7384
   Eigenvalues:   204.7267   209.3309   224.6736
     10  C    Isotropic =   220.1960   Anisotropy =    28.7561
   XX=   225.6939   YX=   -11.8653   ZX=     3.8813
   XY=   -14.4298   YY=   222.3762   ZY=   -10.6934
   XZ=    -1.1376   YZ=    -8.2224   ZZ=   212.5180
   Eigenvalues:   204.6508   216.5705   239.3668
     11  C    Isotropic =   223.6617   Anisotropy =    21.4283
   XX=   220.1985   YX=     2.1869   ZX=    -4.0719
   XY=     0.4905   YY=   219.1181   ZY=    -8.6682
   XZ=    -2.9951   YZ=   -11.2355   ZZ=   231.6684
   Eigenvalues:   213.5807   219.4571   237.9472
     12  H    Isotropic =    32.5899   Anisotropy =    14.5482
   XX=    34.0785   YX=     2.9156   ZX=     6.7231
   XY=     3.1652   YY=    30.3826   ZY=     2.9856
   XZ=     7.1009   YZ=     3.5702   ZZ=    33.3087
   Eigenvalues:    26.7324    28.7486    42.2887
     13  H    Isotropic =    33.1688   Anisotropy =     7.6015
   XX=    34.7152   YX=     1.2952   ZX=    -1.0095
   XY=     1.6360   YY=    29.6630   ZY=    -4.4977
   XZ=    -0.7159   YZ=    -4.3906   ZZ=    35.1281
   Eigenvalues:    27.0794    34.1904    38.2365
     14  H    Isotropic =    32.4839   Anisotropy =    13.8920
   XX=    35.3333   YX=    -7.1318   ZX=     1.1756
   XY=    -7.1749   YY=    33.6409   ZY=     0.5265
   XZ=     1.6133   YZ=     0.0531   ZZ=    28.4773
   Eigenvalues:    26.5783    29.1281    41.7452
     15  H    Isotropic =    32.4235   Anisotropy =    15.4355
   XX=    37.6758   YX=     5.0029   ZX=    -4.8850
   XY=     5.2551   YY=    29.4429   ZY=    -3.0340
   XZ=    -4.8808   YZ=    -2.9010   ZZ=    30.1519
   Eigenvalues:    26.6840    27.8727    42.7139
     16  H    Isotropic =    31.3911   Anisotropy =    11.9151
   XX=    29.9887   YX=     1.6115   ZX=     2.1541
   XY=     1.3700   YY=    29.2239   ZY=     5.1272
   XZ=     2.3385   YZ=     6.4607   ZZ=    34.9608
   Eigenvalues:    25.6255    29.2134    39.3345
     17  H    Isotropic =    33.3359   Anisotropy =     8.3472
   XX=    32.8592   YX=     1.4841   ZX=    -0.1253
   XY=     1.1686   YY=    29.0343   ZY=    -2.9224
   XZ=    -0.3763   YZ=    -2.4198   ZZ=    38.1141
   Eigenvalues:    28.0015    33.1055    38.9007
     18  H    Isotropic =    32.7112   Anisotropy =    12.8723
   XX=    35.5788   YX=    -3.9875   ZX=    -1.6684
   XY=    -4.0748   YY=    36.1216   ZY=     4.6913
   XZ=    -1.6522   YZ=     4.5349   ZZ=    26.4332
   Eigenvalues:    24.5879    32.2530    41.2928
     19  H    Isotropic =    32.8122   Anisotropy =    10.0123
   XX=    33.1032   YX=    -0.9817   ZX=     1.0268
   XY=    -1.3612   YY=    29.8502   ZY=    -5.8708
   XZ=     1.2912   YZ=    -5.6607   ZZ=    35.4831
   Eigenvalues:    26.2282    32.7213    39.4870
     20  H    Isotropic =    32.5700   Anisotropy =    14.1356
   XX=    31.3941   YX=     3.2760   ZX=     3.1710
   XY=     3.2844   YY=    35.1690   ZY=     6.2561
   XZ=     3.3694   YZ=     6.8401   ZZ=    31.1469
   Eigenvalues:    26.1826    29.5336    41.9938
     21  H    Isotropic =    32.6093   Anisotropy =    13.2941
   XX=    29.5020   YX=     0.0471   ZX=    -0.3120
   XY=     0.3197   YY=    36.8506   ZY=    -6.7397
   XZ=    -0.4516   YZ=    -6.8301   ZZ=    31.4754
   Eigenvalues:    26.8481    29.5079    41.4720
     22  H    Isotropic =    32.0940   Anisotropy =    14.1883
   XX=    33.7879   YX=    -5.8616   ZX=    -2.9779
   XY=    -5.6093   YY=    33.6698   ZY=     4.4403
   XZ=    -2.6933   YZ=     4.4307   ZZ=    28.8243
   Eigenvalues:    26.1280    28.6011    41.5529
     23  H    Isotropic =    32.4443   Anisotropy =    13.6251
   XX=    29.0285   YX=     0.9368   ZX=    -1.8594
   XY=     1.3431   YY=    27.7248   ZY=    -3.0088
   XZ=    -2.1153   YZ=    -2.5134   ZZ=    40.5798
   Eigenvalues:    26.8752    28.9301    41.5277
     24  H    Isotropic =    35.1704   Anisotropy =    10.0856
   XX=    29.6295   YX=     0.0400   ZX=     2.2621
   XY=     0.7659   YY=    34.4269   ZY=     1.8075
   XZ=     2.1629   YZ=    -0.8586   ZZ=    41.4548
   Eigenvalues:    29.2104    34.4068    41.8941
     25  H    Isotropic =    32.2522   Anisotropy =    11.8532
   XX=    32.1245   YX=     2.7977   ZX=     2.9861
   XY=     2.2889   YY=    32.7487   ZY=     6.1177
   XZ=     2.5581   YZ=     6.0218   ZZ=    31.8835
   Eigenvalues:    26.2126    30.3898    40.1543
     26  H    Isotropic =    32.5345   Anisotropy =     9.7941
   XX=    31.7586   YX=    -2.6254   ZX=     0.4620
   XY=    -2.6776   YY=    36.1595   ZY=     4.4039
   XZ=     0.3319   YZ=     4.4098   ZZ=    29.6852
   Eigenvalues:    26.9109    31.6286    39.0639
     27  H    Isotropic =    32.5578   Anisotropy =    12.8196
   XX=    31.0410   YX=    -2.5316   ZX=     2.2428
   XY=    -2.3708   YY=    30.1117   ZY=    -6.3465
   XZ=     2.0480   YZ=    -5.7067   ZZ=    36.5208
   Eigenvalues:    26.2486    30.3207    41.1042
     28  H    Isotropic =    32.4277   Anisotropy =    14.6001
   XX=    42.1449   YX=     0.4512   ZX=     0.7029
   XY=    -0.0796   YY=    28.0924   ZY=    -1.2249
   XZ=     0.2395   YZ=    -1.4282   ZZ=    27.0458
   Eigenvalues:    26.1278    28.9942    42.1611
     29  H    Isotropic =    32.9212   Anisotropy =     9.2939
   XX=    30.5219   YX=     1.8551   ZX=    -1.0696
   XY=     1.5985   YY=    30.4441   ZY=     3.2951
   XZ=    -1.2795   YZ=     3.3901   ZZ=    37.7974
   Eigenvalues:    27.6838    31.9627    39.1171
     30  H    Isotropic =    32.4329   Anisotropy =    10.1409
   XX=    32.8406   YX=    -3.0049   ZX=    -0.8330
   XY=    -3.4847   YY=    35.1277   ZY=    -5.1467
   XZ=    -1.2680   YZ=    -5.5882   ZZ=    29.3304
   Eigenvalues:    25.2200    32.8852    39.1935
     31  H    Isotropic =    32.5542   Anisotropy =    14.9010
   XX=    38.9856   YX=     4.8790   ZX=    -3.4202
   XY=     4.5314   YY=    29.3660   ZY=    -3.1015
   XZ=    -3.8409   YZ=    -3.1479   ZZ=    29.3111
   Eigenvalues:    26.1404    29.0341    42.4882
 End of Minotr Frequency-dependent properties file   721 does not exist.
 End of Minotr Frequency-dependent properties file   722 does not exist.

 **********************************************************************

            Population analysis using the SCF density.

 **********************************************************************

 Orbital symmetries:
       Occupied  (A) (A) (A) (A) (A) (A) (A) (A) (A) (A) (A) (A)
                 (A) (A) (A) (A) (A) (A) (A) (A) (A) (A) (A) (A)
                 (A) (A) (A) (A) (A) (A) (A) (A) (A) (A) (A) (A)
                 (A) (A) (A) (A) (A) (A) (A) (A)
       Virtual   (A) (A) (A) (A) (A) (A) (A) (A) (A) (A) (A) (A)
                 (A) (A) (A) (A) (A) (A) (A) (A) (A) (A) (A) (A)
                 (A) (A) (A) (A) (A) (A) (A)
 The electronic state is 1-A.
 Alpha  occ. eigenvalues --  -20.23536 -11.08487 -11.04854 -11.04814 -11.04496
 Alpha  occ. eigenvalues --  -11.04237 -11.04048 -11.03478 -11.03469 -11.03071
 Alpha  occ. eigenvalues --  -11.02883  -1.27962  -1.08204  -1.03882  -0.96972
 Alpha  occ. eigenvalues --   -0.95494  -0.88877  -0.88493  -0.80953  -0.78349
 Alpha  occ. eigenvalues --   -0.72715  -0.68765  -0.64143  -0.59525  -0.59387
 Alpha  occ. eigenvalues --   -0.57515  -0.56749  -0.54761  -0.53752  -0.52487
 Alpha  occ. eigenvalues --   -0.51967  -0.50277  -0.49840  -0.48623  -0.47425
 Alpha  occ. eigenvalues --   -0.45783  -0.43943  -0.43204  -0.42288  -0.41364
 Alpha  occ. eigenvalues --   -0.39789  -0.39560  -0.36343  -0.32280
 Alpha virt. eigenvalues --    0.53111   0.55780   0.57100   0.58433   0.60531
 Alpha virt. eigenvalues --    0.61068   0.61716   0.65134   0.65587   0.66070
 Alpha virt. eigenvalues --    0.66444   0.67954   0.70824   0.71339   0.72028
 Alpha virt. eigenvalues --    0.72560   0.73543   0.74887   0.75914   0.76639
 Alpha virt. eigenvalues --    0.77820   0.78142   0.78911   0.79831   0.81195
 Alpha virt. eigenvalues --    0.81656   0.82628   0.82762   0.83212   0.84412
 Alpha virt. eigenvalues --    0.84990
          Condensed to atoms (all electrons):
              1          2          3          4          5          6
     1  C    4.743910   0.364050  -0.000189  -0.001128   0.000070  -0.024072
     2  C    0.364050   4.748844  -0.019538  -0.021093  -0.003598   0.362558
     3  C   -0.000189  -0.019538   4.740857  -0.022575   0.354272  -0.003804
     4  C   -0.001128  -0.021093  -0.022575   4.759389   0.361731   0.363022
     5  C    0.000070  -0.003598   0.354272   0.361731   4.794917  -0.021785
     6  C   -0.024072   0.362558  -0.003804   0.363022  -0.021785   4.756351
     7  C   -0.023084   0.360829   0.355694  -0.004098  -0.023854  -0.022851
     8  O   -0.000395  -0.000072   0.269298  -0.000710  -0.015459   0.000041
     9  C    0.000000   0.000002  -0.020095  -0.019911   0.358858   0.000610
    10  C    0.000000   0.000000   0.000650  -0.000986  -0.023151   0.000002
    11  C    0.000000   0.000000  -0.000139  -0.002936  -0.019271   0.000013
    12  H    0.382098  -0.020410  -0.000013   0.000025  -0.000002  -0.001766
    13  H    0.381954  -0.020133   0.000222  -0.000295   0.000041  -0.002143
    14  H    0.382996  -0.019996   0.000016  -0.000001  -0.000001   0.001242
    15  H   -0.026032   0.383235   0.001173   0.001235   0.000012  -0.023367
    16  H   -0.000016   0.001144   0.379623   0.001143  -0.023342   0.000019
    17  H   -0.000328  -0.001376  -0.001515   0.380798  -0.021975  -0.023049
    18  H    0.000006   0.001215   0.001185   0.383425  -0.020570  -0.021898
    19  H    0.000000   0.000073  -0.023488  -0.024541   0.378691  -0.002597
    20  H   -0.003398  -0.021202   0.000002  -0.021729   0.001216   0.382640
    21  H    0.001327  -0.022621   0.000042  -0.023475  -0.002049   0.381407
    22  H   -0.003575  -0.021661  -0.021080   0.000001   0.001109   0.001169
    23  H    0.001323  -0.022935  -0.021815   0.000053  -0.000832  -0.000824
    24  H   -0.001361   0.000120  -0.041715  -0.000172  -0.004234   0.000027
    25  H    0.000000   0.000000  -0.003633   0.001064  -0.023292  -0.000014
    26  H    0.000000   0.000000  -0.000002  -0.000463  -0.001480  -0.000004
    27  H    0.000000   0.000000   0.000028   0.000044  -0.002670  -0.000002
    28  H    0.000000   0.000000  -0.000014   0.000002   0.001192   0.000000
    29  H    0.000000   0.000000   0.000010  -0.000756  -0.001489   0.000005
    30  H    0.000000   0.000000   0.000073  -0.000046  -0.001291  -0.000002
    31  H    0.000000   0.000000  -0.000008   0.000031   0.001080   0.000000
              7          8          9         10         11         12
     1  C   -0.023084  -0.000395   0.000000   0.000000   0.000000   0.382098
     2  C    0.360829  -0.000072   0.000002   0.000000   0.000000  -0.020410
     3  C    0.355694   0.269298  -0.020095   0.000650  -0.000139  -0.000013
     4  C   -0.004098  -0.000710  -0.019911  -0.000986  -0.002936   0.000025
     5  C   -0.023854  -0.015459   0.358858  -0.023151  -0.019271  -0.000002
     6  C   -0.022851   0.000041   0.000610   0.000002   0.000013  -0.001766
     7  C    4.783482  -0.021129   0.000578  -0.000005  -0.000006   0.001227
     8  O   -0.021129   7.849739  -0.000332  -0.000001  -0.000990   0.000006
     9  C    0.000578  -0.000332   4.737949   0.363821   0.364530   0.000000
    10  C   -0.000005  -0.000001   0.363821   4.745846  -0.027074   0.000000
    11  C   -0.000006  -0.000990   0.364530  -0.027074   4.746059   0.000000
    12  H    0.001227   0.000006   0.000000   0.000000   0.000000   0.631838
    13  H   -0.000935  -0.000912   0.000000   0.000000   0.000000  -0.022648
    14  H   -0.002798   0.000022   0.000000   0.000000   0.000000  -0.021464
    15  H   -0.023605  -0.000010   0.000001   0.000000   0.000000  -0.003581
    16  H   -0.025389  -0.020944  -0.002061   0.000017   0.000005   0.000001
    17  H    0.000116  -0.000290  -0.001462   0.000038  -0.000716   0.000037
    18  H    0.000009   0.000001  -0.001682  -0.000462  -0.000077  -0.000003
    19  H   -0.001537   0.000561  -0.023021  -0.004859   0.001099   0.000000
    20  H    0.001176  -0.000001  -0.000013   0.000000   0.000000   0.000179
    21  H   -0.000944  -0.000001   0.000006   0.000002  -0.000001   0.000022
    22  H    0.382141  -0.001087  -0.000012   0.000000   0.000000   0.000045
    23  H    0.379026   0.000663   0.000003   0.000000   0.000000  -0.000037
    24  H   -0.000438   0.259358   0.000016  -0.000004  -0.000647   0.000020
    25  H    0.000028   0.000093   0.381605  -0.024566  -0.024231   0.000000
    26  H    0.000000   0.000000  -0.020283   0.382121  -0.002336   0.000000
    27  H   -0.000001   0.000000  -0.020105   0.382181   0.001330   0.000000
    28  H    0.000000   0.000000  -0.019735   0.382504  -0.002366   0.000000
    29  H    0.000000   0.000019  -0.020509  -0.002306   0.382122   0.000000
    30  H    0.000000  -0.000030  -0.019388   0.001349   0.382657   0.000000
    31  H    0.000000   0.000012  -0.019858  -0.002842   0.382129   0.000000
             13         14         15         16         17         18
     1  C    0.381954   0.382996  -0.026032  -0.000016  -0.000328   0.000006
     2  C   -0.020133  -0.019996   0.383235   0.001144  -0.001376   0.001215
     3  C    0.000222   0.000016   0.001173   0.379623  -0.001515   0.001185
     4  C   -0.000295  -0.000001   0.001235   0.001143   0.380798   0.383425
     5  C    0.000041  -0.000001   0.000012  -0.023342  -0.021975  -0.020570
     6  C   -0.002143   0.001242  -0.023367   0.000019  -0.023049  -0.021898
     7  C   -0.000935  -0.002798  -0.023605  -0.025389   0.000116   0.000009
     8  O   -0.000912   0.000022  -0.000010  -0.020944  -0.000290   0.000001
     9  C    0.000000   0.000000   0.000001  -0.002061  -0.001462  -0.001682
    10  C    0.000000   0.000000   0.000000   0.000017   0.000038  -0.000462
    11  C    0.000000   0.000000   0.000000   0.000005  -0.000716  -0.000077
    12  H   -0.022648  -0.021464  -0.003581   0.000001   0.000037  -0.000003
    13  H    0.640196  -0.021790   0.001985  -0.000006  -0.000430  -0.000007
    14  H   -0.021790   0.624836  -0.001833  -0.000003  -0.000007   0.000001
    15  H    0.001985  -0.001833   0.651715  -0.000032  -0.000006  -0.000031
    16  H   -0.000006  -0.000003  -0.000032   0.636682  -0.000009  -0.000028
    17  H   -0.000430  -0.000007  -0.000006  -0.000009   0.650674  -0.023700
    18  H   -0.000007   0.000001  -0.000031  -0.000028  -0.023700   0.635754
    19  H   -0.000001   0.000000  -0.000018  -0.002684   0.001948  -0.002468
    20  H   -0.000001   0.000041  -0.001087   0.000002  -0.002593  -0.002028
    21  H    0.000004  -0.000035  -0.004145  -0.000010   0.001985  -0.002988
    22  H    0.000022   0.000198  -0.000930  -0.001492  -0.000010   0.000002
    23  H   -0.000011   0.000041  -0.004823  -0.003392   0.000003  -0.000006
    24  H   -0.000782  -0.000046   0.000000   0.003704  -0.000391  -0.000033
    25  H    0.000000   0.000000   0.000000   0.000246  -0.000001   0.000007
    26  H    0.000000   0.000000   0.000000   0.000000   0.000029  -0.000389
    27  H    0.000000   0.000000   0.000000   0.000007  -0.000001   0.000035
    28  H    0.000000   0.000000   0.000000  -0.000001  -0.000002  -0.000006
    29  H    0.000000   0.000000   0.000000  -0.000001  -0.000883  -0.000051
    30  H   -0.000001   0.000000   0.000000  -0.000004  -0.000041   0.000014
    31  H    0.000000   0.000000   0.000000   0.000000   0.000010  -0.000007
             19         20         21         22         23         24
     1  C    0.000000  -0.003398   0.001327  -0.003575   0.001323  -0.001361
     2  C    0.000073  -0.021202  -0.022621  -0.021661  -0.022935   0.000120
     3  C   -0.023488   0.000002   0.000042  -0.021080  -0.021815  -0.041715
     4  C   -0.024541  -0.021729  -0.023475   0.000001   0.000053  -0.000172
     5  C    0.378691   0.001216  -0.002049   0.001109  -0.000832  -0.004234
     6  C   -0.002597   0.382640   0.381407   0.001169  -0.000824   0.000027
     7  C   -0.001537   0.001176  -0.000944   0.382141   0.379026  -0.000438
     8  O    0.000561  -0.000001  -0.000001  -0.001087   0.000663   0.259358
     9  C   -0.023021  -0.000013   0.000006  -0.000012   0.000003   0.000016
    10  C   -0.004859   0.000000   0.000002   0.000000   0.000000  -0.000004
    11  C    0.001099   0.000000  -0.000001   0.000000   0.000000  -0.000647
    12  H    0.000000   0.000179   0.000022   0.000045  -0.000037   0.000020
    13  H   -0.000001  -0.000001   0.000004   0.000022  -0.000011  -0.000782
    14  H    0.000000   0.000041  -0.000035   0.000198   0.000041  -0.000046
    15  H   -0.000018  -0.001087  -0.004145  -0.000930  -0.004823   0.000000
    16  H   -0.002684   0.000002  -0.000010  -0.001492  -0.003392   0.003704
    17  H    0.001948  -0.002593   0.001985  -0.000010   0.000003  -0.000391
    18  H   -0.002468  -0.002028  -0.002988   0.000002  -0.000006  -0.000033
    19  H    0.655009   0.000020   0.000333   0.000016  -0.000036   0.000004
    20  H    0.000020   0.638695  -0.023315  -0.000032  -0.000004   0.000003
    21  H    0.000333  -0.023315   0.645993  -0.000002   0.000195   0.000000
    22  H    0.000016  -0.000032  -0.000002   0.627564  -0.021989   0.000038
    23  H   -0.000036  -0.000004   0.000195  -0.021989   0.646861  -0.000049
    24  H    0.000004   0.000003   0.000000   0.000038  -0.000049   0.607284
    25  H   -0.000760   0.000000  -0.000001  -0.000002   0.000001   0.000033
    26  H    0.000032   0.000001   0.000001   0.000000   0.000000   0.000000
    27  H    0.000013   0.000000   0.000000   0.000000   0.000000   0.000000
    28  H    0.000070   0.000000   0.000000   0.000000   0.000000   0.000000
    29  H    0.000001   0.000001   0.000000   0.000000   0.000000  -0.000020
    30  H    0.000001   0.000000   0.000000   0.000000   0.000000  -0.001005
    31  H   -0.000028   0.000000   0.000000   0.000000   0.000000   0.000011
             25         26         27         28         29         30
     1  C    0.000000   0.000000   0.000000   0.000000   0.000000   0.000000
     2  C    0.000000   0.000000   0.000000   0.000000   0.000000   0.000000
     3  C   -0.003633  -0.000002   0.000028  -0.000014   0.000010   0.000073
     4  C    0.001064  -0.000463   0.000044   0.000002  -0.000756  -0.000046
     5  C   -0.023292  -0.001480  -0.002670   0.001192  -0.001489  -0.001291
     6  C   -0.000014  -0.000004  -0.000002   0.000000   0.000005  -0.000002
     7  C    0.000028   0.000000  -0.000001   0.000000   0.000000   0.000000
     8  O    0.000093   0.000000   0.000000   0.000000   0.000019  -0.000030
     9  C    0.381605  -0.020283  -0.020105  -0.019735  -0.020509  -0.019388
    10  C   -0.024566   0.382121   0.382181   0.382504  -0.002306   0.001349
    11  C   -0.024231  -0.002336   0.001330  -0.002366   0.382122   0.382657
    12  H    0.000000   0.000000   0.000000   0.000000   0.000000   0.000000
    13  H    0.000000   0.000000   0.000000   0.000000   0.000000  -0.000001
    14  H    0.000000   0.000000   0.000000   0.000000   0.000000   0.000000
    15  H    0.000000   0.000000   0.000000   0.000000   0.000000   0.000000
    16  H    0.000246   0.000000   0.000007  -0.000001  -0.000001  -0.000004
    17  H   -0.000001   0.000029  -0.000001  -0.000002  -0.000883  -0.000041
    18  H    0.000007  -0.000389   0.000035  -0.000006  -0.000051   0.000014
    19  H   -0.000760   0.000032   0.000013   0.000070   0.000001   0.000001
    20  H    0.000000   0.000001   0.000000   0.000000   0.000001   0.000000
    21  H   -0.000001   0.000001   0.000000   0.000000   0.000000   0.000000
    22  H   -0.000002   0.000000   0.000000   0.000000   0.000000   0.000000
    23  H    0.000001   0.000000   0.000000   0.000000   0.000000   0.000000
    24  H    0.000033   0.000000   0.000000   0.000000  -0.000020  -0.001005
    25  H    0.647308   0.001911  -0.002146  -0.002669   0.001889  -0.002140
    26  H    0.001911   0.632300  -0.021796  -0.021917   0.000340   0.000012
    27  H   -0.002146  -0.021796   0.633346  -0.021864   0.000011  -0.000038
    28  H   -0.002669  -0.021917  -0.021864   0.630469  -0.000008   0.000030
    29  H    0.001889   0.000340   0.000011  -0.000008   0.634107  -0.021781
    30  H   -0.002140   0.000012  -0.000038   0.000030  -0.021781   0.621563
    31  H   -0.002481  -0.000010   0.000040   0.000026  -0.022043  -0.021931
             31
     1  C    0.000000
     2  C    0.000000
     3  C   -0.000008
     4  C    0.000031
     5  C    0.001080
     6  C    0.000000
     7  C    0.000000
     8  O    0.000012
     9  C   -0.019858
    10  C   -0.002842
    11  C    0.382129
    12  H    0.000000
    13  H    0.000000
    14  H    0.000000
    15  H    0.000000
    16  H    0.000000
    17  H    0.000010
    18  H   -0.000007
    19  H   -0.000028
    20  H    0.000000
    21  H    0.000000
    22  H    0.000000
    23  H    0.000000
    24  H    0.000011
    25  H   -0.002481
    26  H   -0.000010
    27  H    0.000040
    28  H    0.000026
    29  H   -0.022043
    30  H   -0.021931
    31  H    0.630655
 Mulliken atomic charges:
              1
     1  C   -0.174155
     2  C   -0.027435
     3  C    0.076478
     4  C   -0.107048
     5  C   -0.042844
     6  C   -0.100928
     7  C   -0.113633
     8  O   -0.317452
     9  C   -0.019512
    10  C   -0.172278
    11  C   -0.179156
    12  H    0.054427
    13  H    0.045669
    14  H    0.058581
    15  H    0.050143
    16  H    0.056821
    17  H    0.043147
    18  H    0.054778
    19  H    0.048166
    20  H    0.051425
    21  H    0.048270
    22  H    0.059563
    23  H    0.048584
    24  H    0.180278
    25  H    0.051747
    26  H    0.051934
    27  H    0.051585
    28  H    0.054289
    29  H    0.051343
    30  H    0.061999
    31  H    0.055214
 Sum of Mulliken atomic charges =   0.00000
 Mulliken charges with hydrogens summed into heavy atoms:
              1
     1  C   -0.015478
     2  C    0.022709
     3  C    0.133299
     4  C   -0.009123
     5  C    0.005322
     6  C   -0.001233
     7  C   -0.005486
     8  O   -0.137174
     9  C    0.032235
    10  C   -0.014469
    11  C   -0.010600
 Sum of Mulliken charges with hydrogens summed into heavy atoms =   0.00000
 Electronic spatial extent (au):  <R**2>=           2009.3100
 Charge=              0.0000 electrons
 Dipole moment (field-independent basis, Debye):
    X=              0.1256    Y=              1.5237    Z=              0.1357  Tot=              1.5349
 Quadrupole moment (field-independent basis, Debye-Ang):
   XX=            -67.3951   YY=            -72.4968   ZZ=            -65.8013
   XY=              0.5872   XZ=              0.2387   YZ=             -0.2731
 Traceless Quadrupole moment (field-independent basis, Debye-Ang):
   XX=              1.1693   YY=             -3.9324   ZZ=              2.7631
   XY=              0.5872   XZ=              0.2387   YZ=             -0.2731
 Octapole moment (field-independent basis, Debye-Ang**2):
  XXX=              2.4242  YYY=              1.9442  ZZZ=             -0.1420  XYY=              0.2394
  XXY=             -5.4079  XXZ=             -0.2582  XZZ=              1.0940  YZZ=             -4.8132
  YYZ=              0.7321  XYZ=             -0.5121
 Hexadecapole moment (field-independent basis, Debye-Ang**3):
 XXXX=          -1674.4961 YYYY=           -542.5684 ZZZZ=           -370.4332 XXXY=              6.0116
 XXXZ=             -4.3200 YYYX=             -1.2726 YYYZ=             -0.4123 ZZZX=              3.2307
 ZZZY=             -2.9773 XXYY=           -365.8317 XXZZ=           -347.1931 YYZZ=           -140.4466
 XXYZ=              4.0168 YYXZ=              0.1972 ZZXY=             -0.5097
 N-N= 7.025187965696D+02 E-N=-2.476845048877D+03  KE= 4.555592151250D+02
 ******************************Gaussian NBO Version 3.1******************************
             N A T U R A L   A T O M I C   O R B I T A L   A N D
          N A T U R A L   B O N D   O R B I T A L   A N A L Y S I S
 ******************************Gaussian NBO Version 3.1******************************
       /RESON  / : Allow strongly delocalized NBO set
       /NLMO   / : Form Natural Localized Molecular Orbitals
       /NMR /    : Analyze NMR Sheilding Tensor 

 Analyzing the SCF density

 Job title: comment                                                         

 Storage needed:     19864 in NPA,     23691 in NBO,     45933 in NLMO (  33549317 available)


 NATURAL POPULATIONS:  Natural atomic orbital occupancies 
                                                          
   NAO  Atom  No  lang   Type(AO)    Occupancy      Energy
 ----------------------------------------------------------
     1    C    1  S      Cor( 1S)     1.99997     -10.96807
     2    C    1  S      Val( 2S)     1.07972      -0.18425
     3    C    1  px     Val( 2p)     1.02176       0.07873
     4    C    1  py     Val( 2p)     1.02374       0.08047
     5    C    1  pz     Val( 2p)     1.00391       0.08621

     6    C    2  S      Cor( 1S)     1.99997     -10.99156
     7    C    2  S      Val( 2S)     1.08120      -0.19626
     8    C    2  px     Val( 2p)     0.98018       0.10028
     9    C    2  py     Val( 2p)     0.96579       0.10436
    10    C    2  pz     Val( 2p)     0.96198       0.10740

    11    C    3  S      Cor( 1S)     1.99989     -11.03410
    12    C    3  S      Val( 2S)     1.08844      -0.21605
    13    C    3  px     Val( 2p)     0.96351       0.09214
    14    C    3  py     Val( 2p)     0.89543       0.11548
    15    C    3  pz     Val( 2p)     0.91012       0.09661

    16    C    4  S      Cor( 1S)     1.99996     -10.98054
    17    C    4  S      Val( 2S)     1.08267      -0.19441
    18    C    4  px     Val( 2p)     0.98796       0.08741
    19    C    4  py     Val( 2p)     1.00606       0.08474
    20    C    4  pz     Val( 2p)     0.99260       0.09197

    21    C    5  S      Cor( 1S)     1.99995     -10.99035
    22    C    5  S      Val( 2S)     1.10306      -0.21517
    23    C    5  px     Val( 2p)     0.95953       0.10140
    24    C    5  py     Val( 2p)     0.97456       0.09655
    25    C    5  pz     Val( 2p)     0.98516       0.09583

    26    C    6  S      Cor( 1S)     1.99996     -10.97870
    27    C    6  S      Val( 2S)     1.08343      -0.19250
    28    C    6  px     Val( 2p)     0.97456       0.09673
    29    C    6  py     Val( 2p)     0.98997       0.08960
    30    C    6  pz     Val( 2p)     1.01538       0.08827

    31    C    7  S      Cor( 1S)     1.99996     -10.97371
    32    C    7  S      Val( 2S)     1.09421      -0.19817
    33    C    7  px     Val( 2p)     0.99289       0.09190
    34    C    7  py     Val( 2p)     1.00462       0.09333
    35    C    7  pz     Val( 2p)     0.99875       0.08698

    36    O    8  S      Cor( 1S)     1.99999     -20.13773
    37    O    8  S      Val( 2S)     1.74484      -0.99359
    38    O    8  px     Val( 2p)     1.95980      -0.36307
    39    O    8  py     Val( 2p)     1.49197      -0.18537
    40    O    8  pz     Val( 2p)     1.14146      -0.02192

    41    C    9  S      Cor( 1S)     1.99996     -10.99237
    42    C    9  S      Val( 2S)     1.08493      -0.19712
    43    C    9  px     Val( 2p)     0.94929       0.10992
    44    C    9  py     Val( 2p)     0.97313       0.10592
    45    C    9  pz     Val( 2p)     0.97097       0.10844

    46    C   10  S      Cor( 1S)     1.99997     -10.96463
    47    C   10  S      Val( 2S)     1.08209      -0.18346
    48    C   10  px     Val( 2p)     1.01343       0.08413
    49    C   10  py     Val( 2p)     1.00720       0.08693
    50    C   10  pz     Val( 2p)     1.02491       0.08526

    51    C   11  S      Cor( 1S)     1.99997     -10.96236
    52    C   11  S      Val( 2S)     1.08019      -0.18017
    53    C   11  px     Val( 2p)     1.03417       0.08073
    54    C   11  py     Val( 2p)     1.02597       0.08687
    55    C   11  pz     Val( 2p)     0.99533       0.09099

    56    H   12  S      Val( 1S)     0.96274       0.07181

    57    H   13  S      Val( 1S)     0.97124       0.06930

    58    H   14  S      Val( 1S)     0.95898       0.07548

    59    H   15  S      Val( 1S)     0.97404       0.06509

    60    H   16  S      Val( 1S)     0.97852       0.05853

    61    H   17  S      Val( 1S)     0.97710       0.06072

    62    H   18  S      Val( 1S)     0.96599       0.06859

    63    H   19  S      Val( 1S)     0.97626       0.06028

    64    H   20  S      Val( 1S)     0.96942       0.06709

    65    H   21  S      Val( 1S)     0.97249       0.06591

    66    H   22  S      Val( 1S)     0.96153       0.07607

    67    H   23  S      Val( 1S)     0.97134       0.06633

    68    H   24  S      Val( 1S)     0.80775       0.08892

    69    H   25  S      Val( 1S)     0.97395       0.06915

    70    H   26  S      Val( 1S)     0.96566       0.07391

    71    H   27  S      Val( 1S)     0.96588       0.07355

    72    H   28  S      Val( 1S)     0.96318       0.07471

    73    H   29  S      Val( 1S)     0.96561       0.07387

    74    H   30  S      Val( 1S)     0.95637       0.08559

    75    H   31  S      Val( 1S)     0.96153       0.07689


 Summary of Natural Population Analysis:                  
                                                          
                                       Natural Population 
                Natural  -----------------------------------------------
    Atom  No    Charge         Core      Valence    Rydberg      Total
 -----------------------------------------------------------------------
      C    1   -0.12910      1.99997     4.12913    0.00000     6.12910
      C    2    0.01087      1.99997     3.98916    0.00000     5.98913
      C    3    0.14261      1.99989     3.85750    0.00000     5.85739
      C    4   -0.06924      1.99996     4.06928    0.00000     6.06924
      C    5   -0.02227      1.99995     4.02231    0.00000     6.02227
      C    6   -0.06329      1.99996     4.06333    0.00000     6.06329
      C    7   -0.09044      1.99996     4.09048    0.00000     6.09044
      O    8   -0.33807      1.99999     6.33807    0.00000     8.33807
      C    9    0.02172      1.99996     3.97832    0.00000     5.97828
      C   10   -0.12761      1.99997     4.12764    0.00000     6.12761
      C   11   -0.13562      1.99997     4.13566    0.00000     6.13562
      H   12    0.03726      0.00000     0.96274    0.00000     0.96274
      H   13    0.02876      0.00000     0.97124    0.00000     0.97124
      H   14    0.04102      0.00000     0.95898    0.00000     0.95898
      H   15    0.02596      0.00000     0.97404    0.00000     0.97404
      H   16    0.02148      0.00000     0.97852    0.00000     0.97852
      H   17    0.02290      0.00000     0.97710    0.00000     0.97710
      H   18    0.03401      0.00000     0.96599    0.00000     0.96599
      H   19    0.02374      0.00000     0.97626    0.00000     0.97626
      H   20    0.03058      0.00000     0.96942    0.00000     0.96942
      H   21    0.02751      0.00000     0.97249    0.00000     0.97249
      H   22    0.03847      0.00000     0.96153    0.00000     0.96153
      H   23    0.02866      0.00000     0.97134    0.00000     0.97134
      H   24    0.19225      0.00000     0.80775    0.00000     0.80775
      H   25    0.02605      0.00000     0.97395    0.00000     0.97395
      H   26    0.03434      0.00000     0.96566    0.00000     0.96566
      H   27    0.03412      0.00000     0.96588    0.00000     0.96588
      H   28    0.03682      0.00000     0.96318    0.00000     0.96318
      H   29    0.03439      0.00000     0.96561    0.00000     0.96561
      H   30    0.04363      0.00000     0.95637    0.00000     0.95637
      H   31    0.03847      0.00000     0.96153    0.00000     0.96153
 =======================================================================
   * Total *    0.00000     21.99955    66.00045    0.00000    88.00000

                                 Natural Population      
 --------------------------------------------------------
   Core                      21.99955 ( 99.9979% of  22)
   Valence                   66.00045 (100.0007% of  66)
   Natural Minimal Basis     88.00000 (100.0000% of  88)
   Natural Rydberg Basis      0.00000 (  0.0000% of  88)
 --------------------------------------------------------

    Atom  No          Natural Electron Configuration
 ----------------------------------------------------------------------------
      C    1      [core]2S( 1.08)2p( 3.05)
      C    2      [core]2S( 1.08)2p( 2.91)
      C    3      [core]2S( 1.09)2p( 2.77)
      C    4      [core]2S( 1.08)2p( 2.99)
      C    5      [core]2S( 1.10)2p( 2.92)
      C    6      [core]2S( 1.08)2p( 2.98)
      C    7      [core]2S( 1.09)2p( 3.00)
      O    8      [core]2S( 1.74)2p( 4.59)
      C    9      [core]2S( 1.08)2p( 2.89)
      C   10      [core]2S( 1.08)2p( 3.05)
      C   11      [core]2S( 1.08)2p( 3.06)
      H   12            1S( 0.96)
      H   13            1S( 0.97)
      H   14            1S( 0.96)
      H   15            1S( 0.97)
      H   16            1S( 0.98)
      H   17            1S( 0.98)
      H   18            1S( 0.97)
      H   19            1S( 0.98)
      H   20            1S( 0.97)
      H   21            1S( 0.97)
      H   22            1S( 0.96)
      H   23            1S( 0.97)
      H   24            1S( 0.81)
      H   25            1S( 0.97)
      H   26            1S( 0.97)
      H   27            1S( 0.97)
      H   28            1S( 0.96)
      H   29            1S( 0.97)
      H   30            1S( 0.96)
      H   31            1S( 0.96)


 NATURAL BOND ORBITAL ANALYSIS:

                       Occupancies       Lewis Structure    Low   High
           Occ.    -------------------  -----------------   occ   occ
  Cycle   Thresh.   Lewis   Non-Lewis     CR  BD  3C  LP    (L)   (NL)   Dev
 =============================================================================
   1(1)    1.90    87.62676   0.37324     11  31   0   2     0      0    0.02
 -----------------------------------------------------------------------------

 Structure accepted: No low occupancy Lewis orbitals

 --------------------------------------------------------
   Core                     21.99954 ( 99.998% of  22)
   Valence Lewis            65.62722 ( 99.435% of  66)
  ==================       ============================
   Total Lewis              87.62676 ( 99.576% of  88)
  -----------------------------------------------------
   Valence non-Lewis         0.37324 (  0.424% of  88)
   Rydberg non-Lewis         0.00000 (  0.000% of  88)
  ==================       ============================
   Total non-Lewis           0.37324 (  0.424% of  88)
 --------------------------------------------------------


       (Occupancy)   Bond orbital/ Coefficients/ Hybrids
 ---------------------------------------------------------------------------------
     1. (1.99082) BD ( 1) C   1 - C   2  
                ( 51.04%)   0.7144* C   1 s( 25.94%)p 2.86( 74.06%)
                                            0.0001  0.5093 -0.3408  0.3820 -0.6918
                ( 48.96%)   0.6997* C   2 s( 25.16%)p 2.97( 74.84%)
                                            0.0000  0.5016  0.2845 -0.4117  0.7057
     2. (1.99465) BD ( 1) C   1 - H  12  
                ( 51.86%)   0.7201* C   1 s( 24.36%)p 3.11( 75.64%)
                                            0.0000  0.4935  0.4633  0.5788  0.4548
                ( 48.14%)   0.6938* H  12 s(100.00%)
                                            1.0000
     3. (1.99310) BD ( 1) C   1 - H  13  
                ( 51.48%)   0.7175* C   1 s( 24.90%)p 3.02( 75.10%)
                                            0.0000  0.4990 -0.6306 -0.3162  0.5034
                ( 48.52%)   0.6966* H  13 s(100.00%)
                                            1.0000
     4. (1.99472) BD ( 1) C   1 - H  14  
                ( 52.06%)   0.7215* C   1 s( 24.81%)p 3.03( 75.19%)
                                            0.0000  0.4981  0.5211 -0.6473 -0.2475
                ( 47.94%)   0.6924* H  14 s(100.00%)
                                            1.0000
     5. (1.98537) BD ( 1) C   2 - C   6  
                ( 49.59%)   0.7042* C   2 s( 25.24%)p 2.96( 74.76%)
                                            0.0000  0.5024 -0.5707  0.6083  0.2279
                ( 50.41%)   0.7100* C   6 s( 25.47%)p 2.93( 74.53%)
                                            0.0001  0.5046  0.5371 -0.6455 -0.2004
     6. (1.98518) BD ( 1) C   2 - C   7  
                ( 49.73%)   0.7052* C   2 s( 25.38%)p 2.94( 74.62%)
                                            0.0000  0.5038 -0.3727 -0.5646 -0.5372
                ( 50.27%)   0.7090* C   7 s( 25.30%)p 2.95( 74.70%)
                                            0.0001  0.5030  0.3193  0.5374  0.5969
     7. (1.98399) BD ( 1) C   2 - H  15  
                ( 51.16%)   0.7153* C   2 s( 24.22%)p 3.13( 75.78%)
                                            0.0000  0.4922  0.6741  0.3765 -0.4019
                ( 48.84%)   0.6989* H  15 s(100.00%)
                                            1.0000
     8. (1.98201) BD ( 1) C   3 - C   5  
                ( 50.03%)   0.7073* C   3 s( 25.74%)p 2.88( 74.26%)
                                            0.0001  0.5074 -0.5135  0.6519  0.2322
                ( 49.97%)   0.7069* C   5 s( 24.87%)p 3.02( 75.13%)
                                            0.0000  0.4987  0.5136 -0.6798 -0.1597
     9. (1.98762) BD ( 1) C   3 - C   7  
                ( 49.28%)   0.7020* C   3 s( 25.78%)p 2.88( 74.22%)
                                            0.0000  0.5077  0.7957  0.2888 -0.1605
                ( 50.72%)   0.7122* C   7 s( 25.40%)p 2.94( 74.60%)
                                            0.0000  0.5040 -0.7922 -0.2561  0.2296
    10. (1.98903) BD ( 1) C   3 - O   8  
                ( 41.04%)   0.6406* C   3 s( 22.56%)p 3.43( 77.44%)
                                            0.0000  0.4750  0.0398 -0.5752  0.6648
                ( 58.96%)   0.7678* O   8 s( 16.74%)p 4.97( 83.26%)
                                            0.0000  0.4092 -0.0377  0.6906 -0.5951
    11. (1.98596) BD ( 1) C   3 - H  16  
                ( 51.17%)   0.7154* C   3 s( 25.92%)p 2.86( 74.08%)
                                           -0.0001  0.5091 -0.3188 -0.4010 -0.6916
                ( 48.83%)   0.6988* H  16 s(100.00%)
                                            1.0000
    12. (1.98545) BD ( 1) C   4 - C   5  
                ( 50.52%)   0.7108* C   4 s( 25.32%)p 2.95( 74.68%)
                                            0.0001  0.5032 -0.3406 -0.5029 -0.6148
                ( 49.48%)   0.7034* C   5 s( 25.36%)p 2.94( 74.64%)
                                            0.0000  0.5036  0.3323  0.4689  0.6451
    13. (1.98942) BD ( 1) C   4 - C   6  
                ( 50.12%)   0.7079* C   4 s( 25.04%)p 2.99( 74.96%)
                                            0.0000  0.5004  0.7817  0.2763 -0.2495
                ( 49.88%)   0.7063* C   6 s( 25.29%)p 2.95( 74.71%)
                                            0.0000  0.5029 -0.7680 -0.3190  0.2355
    14. (1.98870) BD ( 1) C   4 - H  17  
                ( 51.17%)   0.7153* C   4 s( 24.73%)p 3.04( 75.27%)
                                            0.0000  0.4973  0.0768 -0.4536  0.7355
                ( 48.83%)   0.6988* H  17 s(100.00%)
                                            1.0000
    15. (1.98860) BD ( 1) C   4 - H  18  
                ( 51.66%)   0.7187* C   4 s( 24.91%)p 3.01( 75.09%)
                                            0.0000  0.4991 -0.5168  0.6819  0.1370
                ( 48.34%)   0.6953* H  18 s(100.00%)
                                            1.0000
    16. (1.97898) BD ( 1) C   5 - C   9  
                ( 50.32%)   0.7093* C   5 s( 25.86%)p 2.87( 74.14%)
                                            0.0001  0.5085 -0.7898 -0.2726  0.2080
                ( 49.68%)   0.7049* C   9 s( 25.41%)p 2.93( 74.59%)
                                            0.0001  0.5041  0.8166  0.2534 -0.1215
    17. (1.98221) BD ( 1) C   5 - H  19  
                ( 51.05%)   0.7145* C   5 s( 23.92%)p 3.18( 76.08%)
                                            0.0000  0.4890 -0.0446  0.4937 -0.7177
                ( 48.95%)   0.6997* H  19 s(100.00%)
                                            1.0000
    18. (1.98993) BD ( 1) C   6 - H  20  
                ( 51.51%)   0.7177* C   6 s( 25.00%)p 3.00( 75.00%)
                                            0.0000  0.5000  0.3329  0.4662  0.6495
                ( 48.49%)   0.6963* H  20 s(100.00%)
                                            1.0000
    19. (1.99038) BD ( 1) C   6 - H  21  
                ( 51.37%)   0.7167* C   6 s( 24.24%)p 3.12( 75.76%)
                                            0.0000  0.4924 -0.1041  0.5140 -0.6947
                ( 48.63%)   0.6974* H  21 s(100.00%)
                                            1.0000
    20. (1.98863) BD ( 1) C   7 - H  22  
                ( 51.88%)   0.7203* C   7 s( 25.29%)p 2.95( 74.71%)
                                            0.0000  0.5029  0.5181 -0.6870 -0.0825
                ( 48.12%)   0.6937* H  22 s(100.00%)
                                            1.0000
    21. (1.98879) BD ( 1) C   7 - H  23  
                ( 51.35%)   0.7166* C   7 s( 24.01%)p 3.17( 75.99%)
                                            0.0000  0.4900 -0.0446  0.4168 -0.7644
                ( 48.65%)   0.6975* H  23 s(100.00%)
                                            1.0000
    22. (1.98788) BD ( 1) O   8 - H  24  
                ( 59.74%)   0.7729* O   8 s( 17.12%)p 4.84( 82.88%)
                                            0.0000  0.4137  0.1123  0.4406  0.7887
                ( 40.26%)   0.6345* H  24 s(100.00%)
                                            1.0000
    23. (1.98909) BD ( 1) C   9 - C  10  
                ( 48.94%)   0.6996* C   9 s( 24.56%)p 3.07( 75.44%)
                                            0.0000  0.4956 -0.5333  0.6749 -0.1205
                ( 51.06%)   0.7145* C  10 s( 25.74%)p 2.89( 74.26%)
                                            0.0001  0.5073  0.5571 -0.6435  0.1348
    24. (1.99008) BD ( 1) C   9 - C  11  
                ( 49.16%)   0.7012* C   9 s( 25.53%)p 2.92( 74.47%)
                                            0.0000  0.5053 -0.0980 -0.3055  0.8011
                ( 50.84%)   0.7130* C  11 s( 25.93%)p 2.86( 74.07%)
                                            0.0001  0.5092  0.1530  0.3209 -0.7838
    25. (1.98422) BD ( 1) C   9 - H  25  
                ( 51.20%)   0.7155* C   9 s( 24.49%)p 3.08( 75.51%)
                                            0.0000  0.4949 -0.1978 -0.6221 -0.5736
                ( 48.80%)   0.6986* H  25 s(100.00%)
                                            1.0000
    26. (1.99528) BD ( 1) C  10 - H  26  
                ( 51.77%)   0.7195* C  10 s( 24.90%)p 3.02( 75.10%)
                                            0.0000  0.4990  0.1414  0.6356  0.5718
                ( 48.23%)   0.6945* H  26 s(100.00%)
                                            1.0000
    27. (1.99509) BD ( 1) C  10 - H  27  
                ( 51.73%)   0.7192* C  10 s( 24.68%)p 3.05( 75.32%)
                                            0.0000  0.4968  0.1012  0.3108 -0.8040
                ( 48.27%)   0.6948* H  27 s(100.00%)
                                            1.0000
    28. (1.99481) BD ( 1) C  10 - H  28  
                ( 51.84%)   0.7200* C  10 s( 24.69%)p 3.05( 75.31%)
                                            0.0000  0.4969 -0.8120 -0.2921  0.0919
                ( 48.16%)   0.6939* H  28 s(100.00%)
                                            1.0000
    29. (1.99513) BD ( 1) C  11 - H  29  
                ( 51.77%)   0.7195* C  11 s( 24.76%)p 3.04( 75.24%)
                                            0.0000  0.4976  0.1626  0.6030  0.6019
                ( 48.23%)   0.6945* H  29 s(100.00%)
                                            1.0000
    30. (1.99465) BD ( 1) C  11 - H  30  
                ( 52.24%)   0.7228* C  11 s( 24.93%)p 3.01( 75.07%)
                                            0.0000  0.4993  0.5059 -0.6892  0.1410
                ( 47.76%)   0.6911* H  30 s(100.00%)
                                            1.0000
    31. (1.99409) BD ( 1) C  11 - H  31  
                ( 51.91%)   0.7205* C  11 s( 24.39%)p 3.10( 75.61%)
                                            0.0000  0.4938 -0.8332 -0.2418  0.0591
                ( 48.09%)   0.6935* H  31 s(100.00%)
                                            1.0000
    32. (1.99997) CR ( 1) C   1           s(100.00%)
                                            1.0000  0.0000  0.0001  0.0000  0.0000
    33. (1.99997) CR ( 1) C   2           s(100.00%)
                                            1.0000  0.0000  0.0000  0.0000  0.0000
    34. (1.99989) CR ( 1) C   3           s(100.00%)
                                            1.0000  0.0000  0.0000 -0.0001  0.0000
    35. (1.99996) CR ( 1) C   4           s(100.00%)
                                            1.0000 -0.0001  0.0000  0.0001  0.0000
    36. (1.99995) CR ( 1) C   5           s(100.00%)
                                            1.0000  0.0000  0.0000  0.0000  0.0000
    37. (1.99996) CR ( 1) C   6           s(100.00%)
                                            1.0000  0.0000  0.0000  0.0001  0.0000
    38. (1.99996) CR ( 1) C   7           s(100.00%)
                                            1.0000  0.0000  0.0000  0.0000 -0.0001
    39. (1.99999) CR ( 1) O   8           s(100.00%)
                                            1.0000  0.0000  0.0000  0.0000  0.0000
    40. (1.99996) CR ( 1) C   9           s(100.00%)
                                            1.0000  0.0000 -0.0001  0.0000  0.0000
    41. (1.99997) CR ( 1) C  10           s(100.00%)
                                            1.0000  0.0000 -0.0001  0.0000  0.0000
    42. (1.99997) CR ( 1) C  11           s(100.00%)
                                            1.0000  0.0000  0.0000  0.0000  0.0001
    43. (1.99215) LP ( 1) O   8           s( 66.10%)p 0.51( 33.90%)
                                            0.0000  0.8130 -0.0617 -0.5704 -0.0990
    44. (1.97120) LP ( 2) O   8           s(  0.04%)p99.99( 99.96%)
                                            0.0000  0.0193  0.9910 -0.0592 -0.1182
    45. (0.01139) BD*( 1) C   1 - C   2  
                ( 48.96%)   0.6997* C   1 s( 25.94%)p 2.86( 74.06%)
                                           -0.0001 -0.5093  0.3408 -0.3820  0.6918
                ( 51.04%)  -0.7144* C   2 s( 25.16%)p 2.97( 74.84%)
                                            0.0000 -0.5016 -0.2845  0.4117 -0.7057
    46. (0.00486) BD*( 1) C   1 - H  12  
                ( 48.14%)   0.6938* C   1 s( 24.36%)p 3.11( 75.64%)
                                            0.0000 -0.4935 -0.4633 -0.5788 -0.4548
                ( 51.86%)  -0.7201* H  12 s(100.00%)
                                           -1.0000
    47. (0.00797) BD*( 1) C   1 - H  13  
                ( 48.52%)   0.6966* C   1 s( 24.90%)p 3.02( 75.10%)
                                            0.0000 -0.4990  0.6306  0.3162 -0.5034
                ( 51.48%)  -0.7175* H  13 s(100.00%)
                                           -1.0000
    48. (0.00513) BD*( 1) C   1 - H  14  
                ( 47.94%)   0.6924* C   1 s( 24.81%)p 3.03( 75.19%)
                                            0.0000 -0.4981 -0.5211  0.6473  0.2475
                ( 52.06%)  -0.7215* H  14 s(100.00%)
                                           -1.0000
    49. (0.01652) BD*( 1) C   2 - C   6  
                ( 50.41%)   0.7100* C   2 s( 25.24%)p 2.96( 74.76%)
                                            0.0000  0.5024 -0.5707  0.6083  0.2279
                ( 49.59%)  -0.7042* C   6 s( 25.47%)p 2.93( 74.53%)
                                            0.0001  0.5046  0.5371 -0.6455 -0.2004
    50. (0.01711) BD*( 1) C   2 - C   7  
                ( 50.27%)   0.7090* C   2 s( 25.38%)p 2.94( 74.62%)
                                            0.0000  0.5038 -0.3727 -0.5646 -0.5372
                ( 49.73%)  -0.7052* C   7 s( 25.30%)p 2.95( 74.70%)
                                            0.0001  0.5030  0.3193  0.5374  0.5969
    51. (0.00989) BD*( 1) C   2 - H  15  
                ( 48.84%)   0.6989* C   2 s( 24.22%)p 3.13( 75.78%)
                                            0.0000 -0.4922 -0.6741 -0.3765  0.4019
                ( 51.16%)  -0.7153* H  15 s(100.00%)
                                           -1.0000
    52. (0.03276) BD*( 1) C   3 - C   5  
                ( 49.97%)   0.7069* C   3 s( 25.74%)p 2.88( 74.26%)
                                           -0.0001 -0.5074  0.5135 -0.6519 -0.2322
                ( 50.03%)  -0.7073* C   5 s( 24.87%)p 3.02( 75.13%)
                                            0.0000 -0.4987 -0.5136  0.6798  0.1597
    53. (0.03017) BD*( 1) C   3 - C   7  
                ( 50.72%)   0.7122* C   3 s( 25.78%)p 2.88( 74.22%)
                                            0.0000  0.5077  0.7957  0.2888 -0.1605
                ( 49.28%)  -0.7020* C   7 s( 25.40%)p 2.94( 74.60%)
                                            0.0000  0.5040 -0.7922 -0.2561  0.2296
    54. (0.02327) BD*( 1) C   3 - O   8  
                ( 58.96%)   0.7678* C   3 s( 22.56%)p 3.43( 77.44%)
                                            0.0000  0.4750  0.0398 -0.5752  0.6648
                ( 41.04%)  -0.6406* O   8 s( 16.74%)p 4.97( 83.26%)
                                            0.0000  0.4092 -0.0377  0.6906 -0.5951
    55. (0.01731) BD*( 1) C   3 - H  16  
                ( 48.83%)   0.6988* C   3 s( 25.92%)p 2.86( 74.08%)
                                            0.0001 -0.5091  0.3188  0.4010  0.6916
                ( 51.17%)  -0.7154* H  16 s(100.00%)
                                           -1.0000
    56. (0.01687) BD*( 1) C   4 - C   5  
                ( 49.48%)   0.7034* C   4 s( 25.32%)p 2.95( 74.68%)
                                           -0.0001 -0.5032  0.3406  0.5029  0.6148
                ( 50.52%)  -0.7108* C   5 s( 25.36%)p 2.94( 74.64%)
                                            0.0000 -0.5036 -0.3323 -0.4689 -0.6451
    57. (0.01191) BD*( 1) C   4 - C   6  
                ( 49.88%)   0.7063* C   4 s( 25.04%)p 2.99( 74.96%)
                                            0.0000 -0.5004 -0.7817 -0.2763  0.2495
                ( 50.12%)  -0.7079* C   6 s( 25.29%)p 2.95( 74.71%)
                                            0.0000 -0.5029  0.7680  0.3190 -0.2355
    58. (0.01164) BD*( 1) C   4 - H  17  
                ( 48.83%)   0.6988* C   4 s( 24.73%)p 3.04( 75.27%)
                                            0.0000 -0.4973 -0.0768  0.4536 -0.7355
                ( 51.17%)  -0.7153* H  17 s(100.00%)
                                           -1.0000
    59. (0.00896) BD*( 1) C   4 - H  18  
                ( 48.34%)   0.6953* C   4 s( 24.91%)p 3.01( 75.09%)
                                            0.0000 -0.4991  0.5168 -0.6819 -0.1370
                ( 51.66%)  -0.7187* H  18 s(100.00%)
                                           -1.0000
    60. (0.02271) BD*( 1) C   5 - C   9  
                ( 49.68%)   0.7049* C   5 s( 25.86%)p 2.87( 74.14%)
                                           -0.0001 -0.5085  0.7898  0.2726 -0.2080
                ( 50.32%)  -0.7093* C   9 s( 25.41%)p 2.93( 74.59%)
                                           -0.0001 -0.5041 -0.8166 -0.2534  0.1215
    61. (0.01161) BD*( 1) C   5 - H  19  
                ( 48.95%)   0.6997* C   5 s( 23.92%)p 3.18( 76.08%)
                                            0.0000 -0.4890  0.0446 -0.4937  0.7177
                ( 51.05%)  -0.7145* H  19 s(100.00%)
                                           -1.0000
    62. (0.00889) BD*( 1) C   6 - H  20  
                ( 48.49%)   0.6963* C   6 s( 25.00%)p 3.00( 75.00%)
                                            0.0000 -0.5000 -0.3329 -0.4662 -0.6495
                ( 51.51%)  -0.7177* H  20 s(100.00%)
                                           -1.0000
    63. (0.00879) BD*( 1) C   6 - H  21  
                ( 48.63%)   0.6974* C   6 s( 24.24%)p 3.12( 75.76%)
                                            0.0000 -0.4924  0.1041 -0.5140  0.6947
                ( 51.37%)  -0.7167* H  21 s(100.00%)
                                           -1.0000
    64. (0.00886) BD*( 1) C   7 - H  22  
                ( 48.12%)   0.6937* C   7 s( 25.29%)p 2.95( 74.71%)
                                            0.0000 -0.5029 -0.5181  0.6870  0.0825
                ( 51.88%)  -0.7203* H  22 s(100.00%)
                                           -1.0000
    65. (0.00757) BD*( 1) C   7 - H  23  
                ( 48.65%)   0.6975* C   7 s( 24.01%)p 3.17( 75.99%)
                                            0.0000 -0.4900  0.0446 -0.4168  0.7644
                ( 51.35%)  -0.7166* H  23 s(100.00%)
                                           -1.0000
    66. (0.01238) BD*( 1) O   8 - H  24  
                ( 40.26%)   0.6345* O   8 s( 17.12%)p 4.84( 82.88%)
                                            0.0000 -0.4137 -0.1123 -0.4406 -0.7887
                ( 59.74%)  -0.7729* H  24 s(100.00%)
                                           -1.0000
    67. (0.00997) BD*( 1) C   9 - C  10  
                ( 51.06%)   0.7145* C   9 s( 24.56%)p 3.07( 75.44%)
                                            0.0000  0.4956 -0.5333  0.6749 -0.1205
                ( 48.94%)  -0.6996* C  10 s( 25.74%)p 2.89( 74.26%)
                                            0.0001  0.5073  0.5571 -0.6435  0.1348
    68. (0.01059) BD*( 1) C   9 - C  11  
                ( 50.84%)   0.7130* C   9 s( 25.53%)p 2.92( 74.47%)
                                            0.0000  0.5053 -0.0980 -0.3055  0.8011
                ( 49.16%)  -0.7012* C  11 s( 25.93%)p 2.86( 74.07%)
                                            0.0001  0.5092  0.1530  0.3209 -0.7838
    69. (0.01094) BD*( 1) C   9 - H  25  
                ( 48.80%)   0.6986* C   9 s( 24.49%)p 3.08( 75.51%)
                                            0.0000 -0.4949  0.1978  0.6221  0.5736
                ( 51.20%)  -0.7155* H  25 s(100.00%)
                                           -1.0000
    70. (0.00644) BD*( 1) C  10 - H  26  
                ( 48.23%)   0.6945* C  10 s( 24.90%)p 3.02( 75.10%)
                                            0.0000 -0.4990 -0.1414 -0.6356 -0.5718
                ( 51.77%)  -0.7195* H  26 s(100.00%)
                                           -1.0000
    71. (0.00535) BD*( 1) C  10 - H  27  
                ( 48.27%)   0.6948* C  10 s( 24.68%)p 3.05( 75.32%)
                                            0.0000 -0.4968 -0.1012 -0.3108  0.8040
                ( 51.73%)  -0.7192* H  27 s(100.00%)
                                           -1.0000
    72. (0.00496) BD*( 1) C  10 - H  28  
[...]
 Sum      213.8907      -22.1858     236.0765       -26.7482     240.6390

 Contributions to Isotropic shielding for atom    8 (   363.9948 ppm):
                         Standard Origin              Atomic Origin
 NLMO      Total    Paramagnetic  Diamagnetic   Paramagnetic  Diamagnetic
   10      21.4062        7.6667      13.7396        10.8560      10.5502
   11       1.1547        0.4866       0.6682        -0.1361       1.2908
   20      -0.3640       -1.0333       0.6692        -1.3067       0.9427
   22      29.6680       13.2953      16.3727        15.0853      14.5827
   30      -0.5450       -1.2609       0.7159        -0.9461       0.4011
   39     271.1873       -0.0059     271.1932        -0.0021     271.1894
   43      34.3617        4.3102      30.0514        -3.0311      37.3928
   44       6.1508      -32.6726      38.8234       -33.6793      39.8301
 Sum      363.0197       -9.2139     372.2336       -13.1601     376.1798

 Contributions to Isotropic shielding for atom    9 (   212.9104 ppm):
                         Standard Origin              Atomic Origin
 NLMO      Total    Paramagnetic  Diamagnetic   Paramagnetic  Diamagnetic
   10       0.0049       -0.2984       0.3033        -1.0879       1.0928
   16       5.3620       -9.3879      14.7500        -2.2638       7.6258
   23      -2.0502       -4.3610       2.3108        -9.4749       7.4247
   24      -0.4122       -6.4518       6.0397        -8.0392       7.6270
   25       5.3838       -2.0200       7.4038        -5.5678      10.9516
   26       1.0604       -0.3560       1.4164         0.0326       1.0277
   27       0.7283       -0.6095       1.3379        -0.2910       1.0193
   28       0.6600       -0.3488       1.0088        -0.3643       1.0244
   29       0.8741       -0.2544       1.1285        -0.1445       1.0186
   30       0.5990       -0.5597       1.1587        -0.4163       1.0153
   31       0.6100       -0.1433       0.7533        -0.4135       1.0235
   40     199.9237       -0.0017     199.9254         0.0023     199.9214
 Sum      212.7439      -24.7926     237.5365       -28.0282     240.7722

 Contributions to Isotropic shielding for atom   10 (   220.1960 ppm):
                         Standard Origin              Atomic Origin
 NLMO      Total    Paramagnetic  Diamagnetic   Paramagnetic  Diamagnetic
   17      -0.2807       -0.0937      -0.1870        -1.2177       0.9370
   23       4.6547      -11.7963      16.4510        -3.3740       8.0286
   24      -0.5126        0.1078      -0.6204        -1.2631       0.7505
   25       0.3030        0.1486       0.1544        -0.7414       1.0444
   26       6.2669       -4.3653      10.6323        -4.8585      11.1254
   27       4.9703       -4.0404       9.0107        -6.1029      11.0732
   28       4.4035        2.1161       2.2873        -6.7173      11.1208
   31      -0.1080       -0.4513       0.3433        -1.0272       0.9192
   41     200.0753       -0.0039     200.0792         0.0023     200.0730
 Sum      219.7723      -18.3786     238.1509       -25.2998     245.0721

 Contributions to Isotropic shielding for atom   11 (   223.6617 ppm):
                         Standard Origin              Atomic Origin
 NLMO      Total    Paramagnetic  Diamagnetic   Paramagnetic  Diamagnetic
   12      -0.1222       -0.0356      -0.0866        -1.0105       0.8883
   23      -0.3815        0.0589      -0.4404        -1.0865       0.7050
   24       3.8673       -9.1476      13.0149        -4.0407       7.9080
   25       0.3312       -0.1006       0.4319        -0.6739       1.0051
   29       6.7342       -4.1805      10.9147        -4.3607      11.0949
   30       6.6147       -5.6982      12.3129        -4.6512      11.2659
   31       5.9016        3.4678       2.4337        -5.2104      11.1119
   42     200.0751       -0.0024     200.0775         0.0015     200.0736
 Sum      223.0203      -15.6382     238.6585       -21.0324     244.0527

 Contributions to Isotropic shielding for atom   12 (    32.5899 ppm):
                         Standard Origin              Atomic Origin
 NLMO      Total    Paramagnetic  Diamagnetic   Paramagnetic  Diamagnetic
    1       1.2723        0.4657       0.8066         0.2214       1.0509
    2      26.3565        0.0759      26.2806         0.4440      25.9126
    3       2.0335        0.7603       1.2732         0.1743       1.8592
    4       1.9279        2.3377      -0.4098         0.0657       1.8622
 Sum       31.5901        3.6396      27.9505         0.9054      30.6847

 Contributions to Isotropic shielding for atom   13 (    33.1688 ppm):
                         Standard Origin              Atomic Origin
 NLMO      Total    Paramagnetic  Diamagnetic   Paramagnetic  Diamagnetic
    1       1.6482       -1.2407       2.8888         0.7496       0.8986
    2       2.0130        1.1634       0.8496         0.1431       1.8699
    3      26.5270        0.3740      26.1530         0.3620      26.1650
    4       1.9964        0.9443       1.0521         0.1595       1.8369
 Sum       32.1846        1.2410      30.9435         1.4141      30.7704

 Contributions to Isotropic shielding for atom   14 (    32.4839 ppm):
                         Standard Origin              Atomic Origin
 NLMO      Total    Paramagnetic  Diamagnetic   Paramagnetic  Diamagnetic
    1       1.3209        0.2659       1.0550         0.3002       1.0207
    2       1.9110        2.3832      -0.4722         0.0774       1.8336
    3       2.0696        0.5892       1.4804         0.2429       1.8268
    4      26.2383        0.1323      26.1061         0.4401      25.7982
    6      -0.1374        0.2416      -0.3790        -1.0586       0.9212
 Sum       31.4025        3.6122      27.7902         0.0021      31.4004

 Contributions to Isotropic shielding for atom   15 (    32.4235 ppm):
                         Standard Origin              Atomic Origin
 NLMO      Total    Paramagnetic  Diamagnetic   Paramagnetic  Diamagnetic
    1       0.7744        2.2845      -1.5101        -0.2896       1.0640
    2       0.1898       -0.3548       0.5446        -0.8440       1.0337
    5       1.2511        1.3031      -0.0520         0.2385       1.0126
    6       1.2695        1.2817      -0.0122         0.2074       1.0620
    7      26.5202       -0.3713      26.8915         0.4961      26.0242
   19       0.1111        0.0755       0.0356        -0.9554       1.0665
   21       0.0649        0.0368       0.0281        -1.0397       1.1045
 Sum       30.1811        4.2556      25.9255        -2.1866      32.3676

 Contributions to Isotropic shielding for atom   16 (    31.3911 ppm):
                         Standard Origin              Atomic Origin
 NLMO      Total    Paramagnetic  Diamagnetic   Paramagnetic  Diamagnetic
    8       1.0238        0.3066       0.7172        -0.0134       1.0371
    9       0.6200        0.9017      -0.2817        -0.4386       1.0585
   10       0.8931        0.9620      -0.0688        -1.1935       2.0866
   11      26.4472        0.3539      26.0932         0.7967      25.6505
   21       0.1557       -0.4976       0.6532        -0.9331       1.0888
 Sum       29.1397        2.0265      27.1132        -1.7818      30.9215

 Contributions to Isotropic shielding for atom   17 (    33.3359 ppm):
                         Standard Origin              Atomic Origin
 NLMO      Total    Paramagnetic  Diamagnetic   Paramagnetic  Diamagnetic
   10       0.0031       -0.3082       0.3112        -1.0551       1.0582
   12       1.3574        0.0365       1.3209         0.4716       0.8858
   13       1.1680        0.8166       0.3513         0.2109       0.9571
   14      26.5536        0.1899      26.3638         0.3694      26.1842
   15       2.0955        1.3203       0.7752         0.3236       1.7719
   29      -0.2757       -1.3145       1.0387        -1.0065       0.7308
 Sum       30.9019        0.7407      30.1611        -0.6861      31.5879

 Contributions to Isotropic shielding for atom   18 (    32.7112 ppm):
                         Standard Origin              Atomic Origin
 NLMO      Total    Paramagnetic  Diamagnetic   Paramagnetic  Diamagnetic
   12       1.3086        0.6198       0.6888         0.3371       0.9715
   13       1.0859        1.3944      -0.3085         0.0390       1.0469
   14       2.1555        1.0980       1.0575         0.4015       1.7540
   15      26.2902        0.0190      26.2712         0.3979      25.8923
   19       0.2179       -0.4062       0.6241        -0.7897       1.0076
   26      -0.3121       -1.5325       1.2204        -0.8517       0.5396
 Sum       30.7459        1.1924      29.5535        -0.4659      31.2118

 Contributions to Isotropic shielding for atom   19 (    32.8122 ppm):
                         Standard Origin              Atomic Origin
 NLMO      Total    Paramagnetic  Diamagnetic   Paramagnetic  Diamagnetic
    8       1.3653        0.9592       0.4061         0.3793       0.9860
   12       1.2221        0.7765       0.4456         0.1991       1.0229
   16       1.0660        1.3698      -0.3039        -0.0361       1.1020
   17      26.4875       -0.0103      26.4979         0.4480      26.0395
   23      -0.0543       -0.7240       0.6697        -1.1429       1.0887
   27      -0.1407       -1.6804       1.5397        -1.0531       0.9124
 Sum       29.9459        0.6907      29.2551        -1.2056      31.1515

 Contributions to Isotropic shielding for atom   20 (    32.5700 ppm):
                         Standard Origin              Atomic Origin
 NLMO      Total    Paramagnetic  Diamagnetic   Paramagnetic  Diamagnetic
    1      -0.0768       -0.1465       0.0696        -1.0917       1.0148
    2      -0.0810       -1.0181       0.9371        -0.9850       0.9040
    5       1.0628        1.2467      -0.1840         0.1525       0.9103
   13       1.2437        0.5030       0.7407         0.2342       1.0095
   18      26.4257        0.0323      26.3934         0.4873      25.9384
   19       2.0183        1.7546       0.2637         0.2783       1.7400
 Sum       30.5927        2.3722      28.2205        -0.9242      31.5169

 Contributions to Isotropic shielding for atom   21 (    32.6093 ppm):
                         Standard Origin              Atomic Origin
 NLMO      Total    Paramagnetic  Diamagnetic   Paramagnetic  Diamagnetic
    5       1.1741        0.8454       0.3287         0.1677       1.0064
   13       1.3692        0.1092       1.2600         0.3961       0.9731
   18       1.9601        1.8957       0.0644         0.1775       1.7827
   19      26.4783        0.0972      26.3812         0.4393      26.0391
 Sum       30.9818        2.9475      28.0343         1.1805      29.8013

 Contributions to Isotropic shielding for atom   22 (    32.0940 ppm):
                         Standard Origin              Atomic Origin
 NLMO      Total    Paramagnetic  Diamagnetic   Paramagnetic  Diamagnetic
    1      -0.1029       -0.1333       0.0304        -1.0987       0.9958
    4      -0.1325       -1.1990       1.0664        -1.0169       0.8844
    6       1.0303        1.2985      -0.2683         0.0547       0.9756
    9       1.2827        0.5183       0.7644         0.3160       0.9666
   10      -0.1244        0.1593      -0.2837        -1.6027       1.4784
   20      26.2134        0.0866      26.1268         0.5087      25.7047
   21       2.0061        1.7509       0.2552         0.3048       1.7013
 Sum       30.1726        2.4814      27.6912        -2.5341      32.7067

 Contributions to Isotropic shielding for atom   23 (    32.4443 ppm):
                         Standard Origin              Atomic Origin
 NLMO      Total    Paramagnetic  Diamagnetic   Paramagnetic  Diamagnetic
    6       1.1556        0.9266       0.2290         0.0835       1.0720
    7       0.0639       -0.3606       0.4244        -0.9404       1.0043
    9       1.4888        0.3426       1.1462         0.5287       0.9601
   11       0.1150        0.0203       0.0947        -0.9181       1.0330
   20       1.9101        1.8432       0.0669         0.1020       1.8081
   21      26.4895        0.0852      26.4044         0.4431      26.0464
 Sum       31.2229        2.8573      28.3656        -0.7012      31.9241

 Contributions to Isotropic shielding for atom   24 (    35.1704 ppm):
                         Standard Origin              Atomic Origin
 NLMO      Total    Paramagnetic  Diamagnetic   Paramagnetic  Diamagnetic
    3      -0.5002       -1.1221       0.6219        -0.7211       0.2209
   10       2.3109        0.9393       1.3715         1.6696       0.6413
   12      -0.0800       -0.2570       0.1770        -1.0423       0.9623
   22      22.7095       -0.3787      23.0882        -0.3898      23.0993
   30      -0.3841       -1.2011       0.8170        -0.7636       0.3795
   43       3.5044        1.8742       1.6302         1.5292       1.9752
   44       5.4297        2.3110       3.1187         2.2138       3.2160
 Sum       32.9902        2.1657      30.8245         2.4957      30.4945

 Contributions to Isotropic shielding for atom   25 (    32.2522 ppm):
                         Standard Origin              Atomic Origin
 NLMO      Total    Paramagnetic  Diamagnetic   Paramagnetic  Diamagnetic
    8      -0.1588        0.1957      -0.3544        -1.1475       0.9887
   10       0.0217       -0.1140       0.1357        -1.1138       1.1355
   16       1.6493        0.0022       1.6470         0.6291       1.0202
   23       0.8242        2.0937      -1.2694        -0.1700       0.9942
   24       1.0099        1.4242      -0.4143        -0.0400       1.0498
   25      26.4069       -0.0604      26.4673         0.4432      25.9637
 Sum       29.7532        3.5414      26.2119        -1.3989      31.1522

 Contributions to Isotropic shielding for atom   26 (    32.5344 ppm):
                         Standard Origin              Atomic Origin
 NLMO      Total    Paramagnetic  Diamagnetic   Paramagnetic  Diamagnetic
   12      -0.0687        0.2111      -0.2798        -1.0511       0.9824
   23       1.5706       -1.1429       2.7134         0.6508       0.9198
   24      -0.1317        0.3484      -0.4801        -1.0267       0.8949
   26      26.3575        0.2868      26.0707         0.4075      25.9499
   27       1.9701        0.8573       1.1128         0.1608       1.8093
   28       1.8573        2.0379      -0.1806         0.0216       1.8357
 Sum       31.5550        2.5986      28.9564        -0.8371      32.3921

 Contributions to Isotropic shielding for atom   27 (    32.5578 ppm):
                         Standard Origin              Atomic Origin
 NLMO      Total    Paramagnetic  Diamagnetic   Paramagnetic  Diamagnetic
   23       1.6001       -0.8234       2.4235         0.6041       0.9960
   26       2.0248        0.8272       1.1976         0.1877       1.8371
   27      26.4095        0.2703      26.1391         0.4408      25.9687
   28       1.8655        2.2504      -0.3849         0.0115       1.8540
 Sum       31.8999        2.5246      29.3753         1.2441      30.6558

 Contributions to Isotropic shielding for atom   28 (    32.4277 ppm):
                         Standard Origin              Atomic Origin
 NLMO      Total    Paramagnetic  Diamagnetic   Paramagnetic  Diamagnetic
   23       1.2736        0.2391       1.0345         0.2592       1.0144
   24      -0.1740        0.7664      -0.9404        -1.1732       0.9992
   26       1.9525        1.7076       0.2449         0.1009       1.8516
   27       1.8833        1.9441      -0.0607         0.0378       1.8455
   28      26.3672        0.0310      26.3362         0.4670      25.9002
 Sum       31.3026        4.6881      26.6145        -0.3082      31.6108

 Contributions to Isotropic shielding for atom   29 (    32.9212 ppm):
                         Standard Origin              Atomic Origin
 NLMO      Total    Paramagnetic  Diamagnetic   Paramagnetic  Diamagnetic
   12      -0.0783        0.0398      -0.1180        -1.0869       1.0086
   24       1.4435       -0.4764       1.9199         0.5292       0.9143
   29      26.3549        0.2378      26.1171         0.3781      25.9768
   30       2.1344        0.3643       1.7702         0.3043       1.8301
   31       1.9750        2.0755      -0.1004         0.1267       1.8484
 Sum       31.8296        2.2409      29.5886         0.2514      31.5782

 Contributions to Isotropic shielding for atom   30 (    32.4329 ppm):
                         Standard Origin              Atomic Origin
 NLMO      Total    Paramagnetic  Diamagnetic   Paramagnetic  Diamagnetic
   22      -0.1485       -0.1563       0.0079        -1.1573       1.0088
   24       1.4951       -0.7127       2.2078         0.4951       1.0000
   29       2.0949        0.3958       1.6992         0.2687       1.8262
   30      26.1462        0.3012      25.8450         0.3835      25.7627
   31       1.9511        1.8465       0.1047         0.0574       1.8937
 Sum       31.5390        1.6744      29.8645         0.0475      31.4914

 Contributions to Isotropic shielding for atom   31 (    32.5542 ppm):
                         Standard Origin              Atomic Origin
 NLMO      Total    Paramagnetic  Diamagnetic   Paramagnetic  Diamagnetic
   23      -0.1546        0.5494      -0.7039        -1.1632       1.0087
   24       1.1500        0.9124       0.2376         0.1251       1.0249
   28      -0.1019       -1.0863       0.9844        -0.9909       0.8890
   29       2.0025        1.7075       0.2949         0.1373       1.8651
   30       2.0536        1.5012       0.5525         0.1571       1.8966
   31      26.2922       -0.0467      26.3389         0.4057      25.8865
 Sum       31.2418        3.5374      27.7044        -1.3290      32.5708
 
 1\1\GINC-COMPUTE-10-6\SP\RHF\STO-3G\C10H20O1\YTSAI.IQUIR\03-Aug-2021\0
 \\# rhf/STO-3G nmr pop=nbo\\comment\\0,1\C,0,2.231321442,0.847934236,-
 1.961375028\C,0,0.729338893,0.659598312,-2.186562261\C,0,0.086859436,-
 1.305494383,-0.616545768\C,0,-0.202778172,1.101622352,0.156730773\C,0,
 -0.765035327,-0.329273165,0.227262386\C,0,-0.100660566,1.586562104,-1.
 290138689\C,0,0.278722478,-0.805620904,-2.05432108\O,0,1.351542224,-1.
 590100275,-0.035718724\C,0,-1.022590015,-0.834818478,1.6781867\C,0,-2.
 294408174,-0.195254499,2.254957874\C,0,0.126310619,-0.616238707,2.6668
 46223\H,0,2.530279956,1.862907297,-2.246531159\H,0,2.527549483,0.70803
 8841,-0.920155611\H,0,2.808355368,0.150675898,-2.577675477\H,0,0.54432
 6291,0.957763264,-3.227818136\H,0,-0.436947122,-2.267628265,-0.6678240
 11\H,0,0.782704555,1.161611365,0.630235675\H,0,-0.855490865,1.7902085,
 0.704856131\H,0,-1.746827753,-0.302253618,-0.26983367\H,0,0.312472008,
 2.602187573,-1.308314236\H,0,-1.114597484,1.659747151,-1.704984388\H,0
 ,0.985951599,-1.455498137,-2.584146993\H,0,-0.685376514,-0.901651122,-
 2.571767521\H,0,1.758662778,-0.758257215,0.250486616\H,0,-1.212755347,
 -1.915210589,1.626012347\H,0,-2.181333778,0.885263174,2.387739175\H,0,
 -3.153295515,-0.371043648,1.598736802\H,0,-2.534736143,-0.627974287,3.
 232349928\H,0,0.342045885,0.446900366,2.812400316\H,0,1.044389422,-1.1
 14030847,2.349218337\H,0,-0.133999664,-1.030672297,3.647693468\\Versio
 n=EM64L-G09RevC.01\State=1-A\HF=-459.6145952\RMSD=7.665e-09\Dipole=-0.
 2687616,0.5337395,-0.0869949\Quadrupole=0.3115568,-1.3946769,1.0831201
 ,2.2875843,0.3540769,0.2432229\PG=C01 [X(C10H20O1)]\\@


 GARLIC THEN HAVE POWER TO SAVE FROM DEATH
 BEAR WITH IT THOUGH IT MAKETH UNSAVORY BREATH,
 AND SCORN NOT GARLIC LIKE SOME THAT THINK
 IT ONLY MAKETH MEN WINK AND DRINK AND STINK.
   --  SIR JOHN HARRINGTON,
       "THE ENGLISHMAN'S DOCTOR", 1609
 Job cpu time:  0 days  0 hours  0 minutes 34.2 seconds.
 File lengths (MBytes):  RWF=      5 Int=      0 D2E=      0 Chk=      1 Scr=      1
 Normal termination of Gaussian 09 at Tue Aug  3 16:34:48 2021.
