 Entering Gaussian System, Link 0=g09
 Input=/home/ytsai.iquir/menthol/02_menthol_M0007_MMFF_NMR_rhf_STO-3G_nbo.gjc
 Output=/home/ytsai.iquir/menthol/02_menthol_M0007_MMFF_NMR_rhf_STO-3G_nbo.log
 Initial command:
 /share/apps/Gaussian09/EM64T.SSE4.2-enabled/g09/l1.exe /tmp/Gau-11689.inp -scrdir=/tmp/
 Entering Link 1 = /share/apps/Gaussian09/EM64T.SSE4.2-enabled/g09/l1.exe PID=     11690.
  
 Copyright (c) 1988,1990,1992,1993,1995,1998,2003,2009,2011,
            Gaussian, Inc.  All Rights Reserved.
  
 This is part of the Gaussian(R) 09 program.  It is based on
 the Gaussian(R) 03 system (copyright 2003, Gaussian, Inc.),
 the Gaussian(R) 98 system (copyright 1998, Gaussian, Inc.),
 the Gaussian(R) 94 system (copyright 1995, Gaussian, Inc.),
 the Gaussian 92(TM) system (copyright 1992, Gaussian, Inc.),
 the Gaussian 90(TM) system (copyright 1990, Gaussian, Inc.),
 the Gaussian 88(TM) system (copyright 1988, Gaussian, Inc.),
 the Gaussian 86(TM) system (copyright 1986, Carnegie Mellon
 University), and the Gaussian 82(TM) system (copyright 1983,
 Carnegie Mellon University). Gaussian is a federally registered
 trademark of Gaussian, Inc.
  
 This software contains proprietary and confidential information,
 including trade secrets, belonging to Gaussian, Inc.
  
 This software is provided under written license and may be
 used, copied, transmitted, or stored only in accord with that
 written license.
  
 The following legend is applicable only to US Government
 contracts under FAR:
  
                    RESTRICTED RIGHTS LEGEND
  
 Use, reproduction and disclosure by the US Government is
 subject to restrictions as set forth in subparagraphs (a)
 and (c) of the Commercial Computer Software - Restricted
 Rights clause in FAR 52.227-19.
  
 Gaussian, Inc.
 340 Quinnipiac St., Bldg. 40, Wallingford CT 06492
  
  
 ---------------------------------------------------------------
 Warning -- This program may not be used in any manner that
 competes with the business of Gaussian, Inc. or will provide
 assistance to any competitor of Gaussian, Inc.  The licensee
 of this program is prohibited from giving any competitor of
 Gaussian, Inc. access to this program.  By using this program,
 the user acknowledges that Gaussian, Inc. is engaged in the
 business of creating and licensing software in the field of
 computational chemistry and represents and warrants to the
 licensee that it is not a competitor of Gaussian, Inc. and that
 it will not use this program in any manner prohibited above.
 ---------------------------------------------------------------
  

 Cite this work as:
 Gaussian 09, Revision C.01,
 M. J. Frisch, G. W. Trucks, H. B. Schlegel, G. E. Scuseria, 
 M. A. Robb, J. R. Cheeseman, G. Scalmani, V. Barone, B. Mennucci, 
 G. A. Petersson, H. Nakatsuji, M. Caricato, X. Li, H. P. Hratchian, 
 A. F. Izmaylov, J. Bloino, G. Zheng, J. L. Sonnenberg, M. Hada, 
 M. Ehara, K. Toyota, R. Fukuda, J. Hasegawa, M. Ishida, T. Nakajima, 
 Y. Honda, O. Kitao, H. Nakai, T. Vreven, J. A. Montgomery, Jr., 
 J. E. Peralta, F. Ogliaro, M. Bearpark, J. J. Heyd, E. Brothers, 
 K. N. Kudin, V. N. Staroverov, T. Keith, R. Kobayashi, J. Normand, 
 K. Raghavachari, A. Rendell, J. C. Burant, S. S. Iyengar, J. Tomasi, 
 M. Cossi, N. Rega, J. M. Millam, M. Klene, J. E. Knox, J. B. Cross, 
 V. Bakken, C. Adamo, J. Jaramillo, R. Gomperts, R. E. Stratmann, 
 O. Yazyev, A. J. Austin, R. Cammi, C. Pomelli, J. W. Ochterski, 
 R. L. Martin, K. Morokuma, V. G. Zakrzewski, G. A. Voth, 
 P. Salvador, J. J. Dannenberg, S. Dapprich, A. D. Daniels, 
 O. Farkas, J. B. Foresman, J. V. Ortiz, J. Cioslowski, 
 and D. J. Fox, Gaussian, Inc., Wallingford CT, 2010.
 
 ******************************************
 Gaussian 09:  EM64L-G09RevC.01 23-Sep-2011
                 3-Aug-2021 
 ******************************************
 %nprocshared=4
 Will use up to    4 processors via shared memory.
 ------------------------
 # rhf/STO-3G nmr pop=nbo
 ------------------------
 1/38=1/1;
 2/12=2,17=6,18=5,40=1/2;
 3/6=3,11=1,16=1,25=1,30=1,116=1/1,2,8,3;
 4//1;
 5/5=2,38=5/2;
 8/6=1,10=90,11=11/1;
 10/13=100,45=16/2;
 6/7=2,8=2,9=2,10=2,28=1,64=1/1,7;
 99/9=1/99;
 -------
 comment
 -------
 Charge =  0 Multiplicity = 1
 Symbolic Z-Matrix:
 6                     2.20206   1.18432  -1.73894 
 6                     0.7405    0.90075  -2.09578 
 6                     0.13607  -1.01323  -0.46446 
 6                    -0.39602   1.39074   0.14094 
 6                    -0.85975  -0.07459   0.24968 
 6                    -0.21796   1.81163  -1.31835 
 6                     0.36311  -0.58074  -1.92056 
 8                     1.38081  -1.0509    0.22051 
 6                    -1.22135  -0.45462   1.7165 
 6                    -0.08926  -0.32442   2.73834 
 6                    -1.82922  -1.85881   1.80402 
 1                     2.46465   2.21405  -2.00553 
 1                     2.40863   1.06171  -0.67287 
 1                     2.87253   0.5193   -2.29337 
 1                     0.63417   1.13991  -3.16256 
 1                    -0.25859  -2.03503  -0.47046 
 1                     0.54549   1.54429   0.67859 
 1                    -1.13774   2.04959   0.60848 
 1                    -1.80295  -0.14218  -0.3142 
 1                     0.12712   2.85155  -1.36127 
 1                    -1.19922   1.79158  -1.81031 
 1                     1.13598  -1.20857  -2.38075 
 1                    -0.56492  -0.76281  -2.47852 
 1                     1.9619   -1.66789  -0.25589 
 1                    -2.00771   0.24528   2.03302 
 1                     0.69754  -1.06678   2.57988 
 1                     0.36173   0.67121   2.72362 
 1                    -0.47779  -0.48347   3.75104 
 1                    -1.08453  -2.63643   1.60671 
 1                    -2.64874  -1.97653   1.08748 
 1                    -2.23654  -2.03892   2.805 
 
                          Input orientation:                          
 ---------------------------------------------------------------------
 Center     Atomic      Atomic             Coordinates (Angstroms)
 Number     Number       Type             X           Y           Z
 ---------------------------------------------------------------------
      1          6           0        2.202056    1.184321   -1.738940
      2          6           0        0.740498    0.900754   -2.095782
      3          6           0        0.136069   -1.013233   -0.464465
      4          6           0       -0.396024    1.390745    0.140943
      5          6           0       -0.859749   -0.074594    0.249682
      6          6           0       -0.217965    1.811631   -1.318350
      7          6           0        0.363111   -0.580744   -1.920563
      8          8           0        1.380810   -1.050898    0.220511
      9          6           0       -1.221345   -0.454618    1.716502
     10          6           0       -0.089259   -0.324421    2.738344
     11          6           0       -1.829217   -1.858811    1.804017
     12          1           0        2.464646    2.214050   -2.005528
     13          1           0        2.408630    1.061708   -0.672875
     14          1           0        2.872533    0.519300   -2.293368
     15          1           0        0.634167    1.139910   -3.162558
     16          1           0       -0.258593   -2.035027   -0.470456
     17          1           0        0.545491    1.544290    0.678590
     18          1           0       -1.137736    2.049594    0.608482
     19          1           0       -1.802949   -0.142179   -0.314197
     20          1           0        0.127116    2.851551   -1.361272
     21          1           0       -1.199218    1.791580   -1.810313
     22          1           0        1.135982   -1.208571   -2.380745
     23          1           0       -0.564925   -0.762806   -2.478519
     24          1           0        1.961904   -1.667892   -0.255887
     25          1           0       -2.007705    0.245281    2.033020
     26          1           0        0.697536   -1.066776    2.579881
     27          1           0        0.361734    0.671213    2.723620
     28          1           0       -0.477790   -0.483470    3.751035
     29          1           0       -1.084525   -2.636434    1.606712
     30          1           0       -2.648737   -1.976535    1.087480
     31          1           0       -2.236544   -2.038920    2.804999
 ---------------------------------------------------------------------
                    Distance matrix (angstroms):
                    1          2          3          4          5
     1  C    0.000000
     2  C    1.530980   0.000000
     3  C    3.274421   2.586480   0.000000
     4  C    3.213501   2.556308   2.535498   0.000000
     5  C    3.861883   3.002216   1.543601   1.540806   0.000000
     6  C    2.535137   1.533867   2.972258   1.529178   2.535440
     7  C    2.555418   1.538817   1.535845   2.951755   2.541956
     8  O    3.083844   3.095829   1.421263   3.020776   2.444202
     9  C    5.132824   4.496596   2.628924   2.562988   1.557797
    10  C    5.250952   5.055524   3.283781   3.127682   2.617156
    11  C    6.169632   5.424672   3.118230   3.921667   2.557196
    12  H    1.095612   2.169234   4.267611   3.669959   4.623361
    13  H    1.092795   2.198462   3.084371   2.938817   3.581144
    14  H    1.095071   2.174883   3.630672   4.167583   4.555188
    15  H    2.118240   1.098414   3.487669   3.469485   3.917932
    16  H    4.245945   3.501239   1.095379   3.482615   2.173312
    17  H    2.952666   2.854698   2.831100   1.095030   2.186195
    18  H    4.172925   3.487211   3.486360   1.096728   2.172139
    19  H    4.453040   3.275802   2.130988   2.129894   1.100978
    20  H    2.688432   2.172867   3.967480   2.159695   3.483016
    21  H    3.455796   2.153500   3.385451   2.147834   2.800254
    22  H    2.697102   2.164916   2.170279   3.932225   3.491131
    23  H    3.463303   2.148965   2.147213   3.395275   2.829071
    24  H    3.223699   3.387475   1.950834   3.882339   3.279623
    25  H    5.729884   5.002927   3.523785   2.736707   2.144858
    26  H    5.097375   5.072952   3.096151   3.630937   2.973111
    27  H    4.854328   4.839709   3.612778   2.786062   2.858079
    28  H    6.332687   6.130707   4.292774   4.068432   3.545778
    29  H    6.049229   5.436071   2.900759   4.340586   2.907762
    30  H    6.442814   5.467985   3.330410   4.160435   2.742218
    31  H    7.123050   6.443766   4.167820   4.716705   3.504823
                    6          7          8          9         10
     6  C    0.000000
     7  C    2.534515   0.000000
     8  O    3.621911   2.416807   0.000000
     9  C    3.918288   3.969214   3.060188   0.000000
    10  C    4.586507   4.687831   3.004723   1.530598   0.000000
    11  C    5.081087   4.506912   3.669399   1.532620   2.500955
    12  H    2.798313   3.497791   4.097540   5.878931   5.955719
    13  H    2.806781   2.904913   2.513494   4.602726   4.449406
    14  H    3.488832   2.765190   3.318184   5.812694   5.899339
    15  H    2.139729   2.139315   4.099057   5.458083   6.122765
    16  H    3.939206   2.145756   2.033122   2.864850   3.640226
    17  H    2.154554   3.362235   2.764524   2.862622   2.852644
    18  H    2.148322   3.945541   4.013309   2.739668   3.357315
    19  H    2.708851   2.732136   3.353804   2.135327   3.505417
    20  H    1.096521   3.485563   4.393506   4.714000   5.190421
    21  H    1.097856   2.842701   4.342864   4.181426   5.138069
    22  H    3.476129   1.096934   2.617505   4.786739   5.337416
    23  H    2.845013   1.098049   3.339707   4.257238   5.256815
    24  H    4.241195   2.551309   0.972269   3.936423   3.870091
    25  H    4.109538   4.683365   4.055528   1.099274   2.121904
    26  H    4.931488   4.538950   2.456368   2.191407   1.093274
    27  H    4.239589   4.809972   3.204643   2.188132   1.093115
    28  H    5.570786   5.734423   4.030009   2.166340   1.096264
    29  H    5.393718   4.331649   3.242430   2.188857   2.759810
    30  H    5.103613   4.479708   4.224416   2.179300   3.464933
    31  H    5.991945   5.587077   4.554231   2.173814   2.748596
                   11         12         13         14         15
    11  C    0.000000
    12  H    7.038330   0.000000
    13  H    5.711722   1.762667   0.000000
    14  H    6.674610   1.766748   1.770709   0.000000
    15  H    6.302971   2.417260   3.058326   2.480107   0.000000
    16  H    2.769682   5.275143   4.092043   4.433006   4.257306
    17  H    4.299642   3.366930   2.351728   3.911298   3.863392
    18  H    4.145247   4.453903   3.898013   5.181196   4.264729
    19  H    2.726599   5.159921   4.394928   5.120039   3.961874
    20  H    6.002816   2.507093   2.980391   3.720955   2.536029
    21  H    5.175483   3.693303   3.852667   4.293156   2.369502
    22  H    5.169860   3.690592   3.112976   2.451281   2.525551
    23  H    4.597801   4.273604   3.928260   3.673444   2.350757
    24  H    4.318826   4.287595   2.797170   3.124801   4.253866
    25  H    2.124029   6.339389   5.243323   6.527591   5.896938
    26  H    2.759305   5.908678   4.247200   5.567298   6.152161
    27  H    3.470873   5.400687   3.984776   5.612250   5.911090
    28  H    2.740219   7.005181   5.503633   6.983195   7.188155
    29  H    1.094620   7.012281   5.574486   6.389647   6.321441
    30  H    1.094942   7.298930   6.156844   6.938569   6.209066
    31  H    1.095592   7.958022   6.579296   7.657709   7.345589
                   16         17         18         19         20
    16  H    0.000000
    17  H    3.844264   0.000000
    18  H    4.315220   1.758836   0.000000
    19  H    2.447922   3.056955   2.469355   0.000000
    20  H    4.982064   2.458659   2.474454   3.712673   0.000000
    21  H    4.162080   3.049557   2.433295   2.518388   1.756229
    22  H    2.505409   4.157698   4.972013   3.747683   4.306010
    23  H    2.396811   4.064856   4.215126   2.569470   3.845873
    24  H    2.260848   3.632848   4.916768   4.062674   5.001369
    25  H    3.811376   3.168710   2.457987   2.387777   4.782398
    26  H    3.340097   3.233526   4.119029   3.934843   5.586712
    27  H    4.232098   2.231183   2.936350   3.817825   4.636298
    28  H    4.502928   3.820843   4.089937   4.289363   6.133838
    29  H    2.314839   4.582229   4.791467   3.229138   6.355705
    30  H    2.853659   4.771425   4.326924   2.458640   6.083762
    31  H    3.826344   5.010063   4.769488   3.676277   6.845540
                   21         22         23         24         25
    21  H    0.000000
    22  H    3.844406   0.000000
    23  H    2.715458   1.761065   0.000000
    24  H    4.937295   2.325542   3.484844   0.000000
    25  H    4.220889   5.610506   4.842711   4.965594   0.000000
    26  H    5.571506   4.981983   5.222415   3.162523   3.055958
    27  H    4.924260   5.494323   5.475158   4.112106   2.504514
    28  H    6.051852   6.381909   6.236423   4.838428   2.413150
    29  H    5.594329   4.782182   4.524332   3.699740   3.055860
    30  H    4.969607   5.190612   4.304853   4.812266   2.498286
    31  H    6.086861   6.241423   5.686682   5.208998   2.421960
                   26         27         28         29         30
    26  H    0.000000
    27  H    1.775959   0.000000
    28  H    1.758760   1.758885   0.000000
    29  H    2.566442   3.778846   3.098629   0.000000
    30  H    3.775244   4.330180   3.746569   1.775339   0.000000
    31  H    3.099124   3.755329   2.531329   1.766370   1.767390
                   31
    31  H    0.000000
 Stoichiometry    C10H20O
 Framework group  C1[X(C10H20O)]
 Deg. of freedom    87
 Full point group                 C1      NOp   1
 Largest Abelian subgroup         C1      NOp   1
 Largest concise Abelian subgroup C1      NOp   1
                         Standard orientation:                         
 ---------------------------------------------------------------------
 Center     Atomic      Atomic             Coordinates (Angstroms)
 Number     Number       Type             X           Y           Z
 ---------------------------------------------------------------------
      1          6           0        2.821583   -0.257278    1.006315
      2          6           0        2.331160    0.103681   -0.398353
      3          6           0       -0.017539   -0.978000   -0.457167
      4          6           0        0.242892    1.466039    0.165409
      5          6           0       -0.650156    0.427554   -0.540351
      6          6           0        1.653775    1.479629   -0.424174
      7          6           0        1.417598   -0.976305   -1.004155
      8          8           0       -0.016419   -1.457318    0.880832
      9          6           0       -2.132991    0.535359   -0.075260
     10          6           0       -2.381650    0.315937    1.418980
     11          6           0       -3.049142   -0.387579   -0.886295
     12          1           0        3.571692    0.466474    1.343782
     13          1           0        2.017899   -0.261761    1.746770
     14          1           0        3.292489   -1.245919    1.010385
     15          1           0        3.228097    0.163045   -1.029616
     16          1           0       -0.607398   -1.684433   -1.051200
     17          1           0        0.302497    1.265133    1.240200
     18          1           0       -0.193602    2.466066    0.054810
     19          1           0       -0.654613    0.699013   -1.607329
     20          1           0        2.267551    2.215590    0.108741
     21          1           0        1.594462    1.823177   -1.465204
     22          1           0        1.874937   -1.962389   -0.856698
     23          1           0        1.368558   -0.810119   -2.088447
     24          1           0        0.371863   -2.348673    0.875265
     25          1           0       -2.452899    1.563663   -0.295832
     26          1           0       -2.204397   -0.720205    1.719378
     27          1           0       -1.760647    0.969887    2.036721
     28          1           0       -3.425782    0.544027    1.663028
     29          1           0       -2.874389   -1.442131   -0.650550
     30          1           0       -2.897122   -0.244834   -1.961196
     31          1           0       -4.101031   -0.171281   -0.669352
 ---------------------------------------------------------------------
 Rotational constants (GHZ):      1.8570925      0.7370723      0.6956862
 Standard basis: STO-3G (5D, 7F)
 There are    75 symmetry adapted basis functions of A   symmetry.
 Integral buffers will be    131072 words long.
 Raffenetti 1 integral format.
 Two-electron integral symmetry is turned on.
    75 basis functions,   225 primitive gaussians,    75 cartesian basis functions
    44 alpha electrons       44 beta electrons
       nuclear repulsion energy       704.8082355968 Hartrees.
 NAtoms=   31 NActive=   31 NUniq=   31 SFac= 1.00D+00 NAtFMM=   60 NAOKFM=F Big=F
 One-electron integrals computed using PRISM.
 NBasis=    75 RedAO= T  NBF=    75
 NBsUse=    75 1.00D-06 NBFU=    75
 Harris functional with IExCor=  205 diagonalized for initial guess.
 ExpMin= 1.69D-01 ExpMax= 1.31D+02 ExpMxC= 1.31D+02 IAcc=1 IRadAn=         1 AccDes= 0.00D+00
 HarFok:  IExCor=  205 AccDes= 0.00D+00 IRadAn=         1 IDoV= 1
 ScaDFX=  1.000000  1.000000  1.000000  1.000000
 FoFCou: FMM=F IPFlag=           0 FMFlag=      100000 FMFlg1=           0
         NFxFlg=           0 DoJE=T BraDBF=F KetDBF=T FulRan=T
         Omega=  0.000000  0.000000  1.000000  0.000000  0.000000 ICntrl=     500 IOpCl=  0
         NMat0=    1 NMatS0=    1 NMatT0=    0 NMatD0=    1 NMtDS0=    0 NMtDT0=    0
         I1Cent=           4 NGrid=           0.
 Petite list used in FoFCou.
 Initial guess orbital symmetries:
       Occupied  (A) (A) (A) (A) (A) (A) (A) (A) (A) (A) (A) (A)
                 (A) (A) (A) (A) (A) (A) (A) (A) (A) (A) (A) (A)
                 (A) (A) (A) (A) (A) (A) (A) (A) (A) (A) (A) (A)
                 (A) (A) (A) (A) (A) (A) (A) (A)
       Virtual   (A) (A) (A) (A) (A) (A) (A) (A) (A) (A) (A) (A)
                 (A) (A) (A) (A) (A) (A) (A) (A) (A) (A) (A) (A)
                 (A) (A) (A) (A) (A) (A) (A)
 The electronic state of the initial guess is 1-A.
 Requested convergence on RMS density matrix=1.00D-08 within 128 cycles.
 Requested convergence on MAX density matrix=1.00D-06.
 Requested convergence on             energy=1.00D-06.
 No special actions if energy rises.
 Keep R1 ints in memory in canonical form, NReq=4898789.
 SCF Done:  E(RHF) =  -459.618292621     A.U. after   10 cycles
             Convg  =    0.6783D-08             -V/T =  2.0090
 Range of M.O.s used for correlation:     1    75
 NBasis=    75 NAE=    44 NBE=    44 NFC=     0 NFV=     0
 NROrb=     75 NOA=    44 NOB=    44 NVA=    31 NVB=    31
          Differentiating once with respect to magnetic field using GIAOs.
          Electric field/nuclear overlap derivatives assumed to be zero.
          Keep R3 ints in memory in canonical form, NReq=4863575.
 FoFCou: FMM=F IPFlag=           0 FMFlag=           0 FMFlg1=           0
         NFxFlg=           0 DoJE=F BraDBF=F KetDBF=T FulRan=T
         Omega=  0.000000  0.000000  1.000000  0.000000  0.000000 ICntrl=    6100 IOpCl=  0
         NMat0=    1 NMatS0=    1 NMatT0=    0 NMatD0=    1 NMtDS0=    0 NMtDT0=    0
         I1Cent=           7 NGrid=          31.
 Symmetry not used in FoFCou.
          There are     3 degrees of freedom in the 1st order CPHF.  IDoFFX=0.
      3 vectors produced by pass  0 Test12= 4.55D-14 3.33D-08 XBig12= 6.66D+00 4.06D-01.
 AX will form     3 AO Fock derivatives at one time.
      3 vectors produced by pass  1 Test12= 4.55D-14 3.33D-08 XBig12= 9.81D-03 1.55D-02.
      3 vectors produced by pass  2 Test12= 4.55D-14 3.33D-08 XBig12= 7.50D-05 2.39D-03.
      3 vectors produced by pass  3 Test12= 4.55D-14 3.33D-08 XBig12= 2.19D-06 3.99D-04.
      3 vectors produced by pass  4 Test12= 4.55D-14 3.33D-08 XBig12= 2.21D-08 3.00D-05.
      3 vectors produced by pass  5 Test12= 4.55D-14 3.33D-08 XBig12= 2.67D-10 2.57D-06.
      3 vectors produced by pass  6 Test12= 4.55D-14 3.33D-08 XBig12= 1.93D-12 1.81D-07.
 Inverted reduced A of dimension    21 with in-core refinement.
 Calculating GIAO nuclear magnetic shielding tensors.
 SCF GIAO Magnetic shielding tensor (ppm):
      1  C    Isotropic =   222.2951   Anisotropy =    24.8326
   XX=   216.8047   YX=    -0.8367   ZX=    11.0320
   XY=    -2.3768   YY=   220.0807   ZY=    -3.3058
   XZ=    15.0789   YZ=    -3.9275   ZZ=   229.9997
   Eigenvalues:   208.7488   219.2863   238.8501
      2  C    Isotropic =   216.3762   Anisotropy =     3.7686
   XX=   215.7147   YX=     0.3961   ZX=     3.9433
   XY=     0.4029   YY=   217.9343   ZY=     0.3030
   XZ=     2.3086   YZ=     0.0031   ZZ=   215.4797
   Eigenvalues:   212.4640   217.7761   218.8887
      3  C    Isotropic =   190.1196   Anisotropy =    37.9941
   XX=   180.0028   YX=    -5.1002   ZX=    -0.9800
   XY=    -5.2270   YY=   181.4219   ZY=   -14.5930
   XZ=     0.2392   YZ=   -14.9533   ZZ=   208.9341
   Eigenvalues:   171.9910   182.9188   215.4491
      4  C    Isotropic =   219.2685   Anisotropy =    16.4758
   XX=   227.2407   YX=     4.6362   ZX=    -0.7762
   XY=     4.6768   YY=   221.6181   ZY=     5.2463
   XZ=     2.1739   YZ=     3.6080   ZZ=   208.9468
   Eigenvalues:   207.5241   220.0291   230.2523
      5  C    Isotropic =   209.5723   Anisotropy =    15.0892
   XX=   218.4399   YX=     3.2593   ZX=    -1.6360
   XY=     1.9738   YY=   205.8368   ZY=    -0.6240
   XZ=    -4.9345   YZ=     0.9922   ZZ=   204.4402
   Eigenvalues:   203.4280   205.6572   219.6318
      6  C    Isotropic =   216.3640   Anisotropy =    11.0142
   XX=   220.8070   YX=    -2.9628   ZX=    -0.0615
   XY=    -3.8768   YY=   219.6061   ZY=    -3.5815
   XZ=    -1.1739   YZ=     0.1197   ZZ=   208.6788
   Eigenvalues:   208.3002   217.0849   223.7068
      7  C    Isotropic =   213.8206   Anisotropy =    11.1343
   XX=   220.6208   YX=     1.9616   ZX=    -1.8820
   XY=     1.9344   YY=   214.7344   ZY=     1.1979
   XZ=    -0.5278   YZ=     1.7325   ZZ=   206.1067
   Eigenvalues:   205.7091   214.5093   221.2435
      8  O    Isotropic =   357.1477   Anisotropy =    99.0141
   XX=   351.9494   YX=   -35.3090   ZX=     2.8487
   XY=   -37.0270   YY=   404.6096   ZY=    -9.4381
   XZ=   -17.6082   YZ=    10.6648   ZZ=   314.8840
   Eigenvalues:   312.8308   335.4551   423.1571
      9  C    Isotropic =   212.4534   Anisotropy =    17.7855
   XX=   224.1480   YX=    -0.0167   ZX=     0.0136
   XY=     0.6281   YY=   205.1204   ZY=     1.8911
   XZ=    -3.2471   YZ=     1.0977   ZZ=   208.0919
   Eigenvalues:   204.4565   208.5933   224.3104
     10  C    Isotropic =   223.5393   Anisotropy =    21.1923
   XX=   218.9716   YX=    -0.7756   ZX=    -4.8474
   XY=    -1.0553   YY=   214.8408   ZY=    -2.8544
   XZ=    -2.8786   YZ=     0.0673   ZZ=   236.8057
   Eigenvalues:   214.4110   218.5395   237.6676
     11  C    Isotropic =   221.3316   Anisotropy =    25.6030
   XX=   223.9289   YX=     7.7867   ZX=     9.5056
   XY=    10.2351   YY=   216.1844   ZY=     9.0755
   XZ=     6.6808   YZ=     6.6083   ZZ=   223.8814
   Eigenvalues:   209.7057   215.8888   238.4002
     12  H    Isotropic =    32.5720   Anisotropy =    14.7668
   XX=    35.7745   YX=     4.5899   ZX=     6.2388
   XY=     4.5299   YY=    30.9598   ZY=     2.1089
   XZ=     6.4354   YZ=     2.5865   ZZ=    30.9817
   Eigenvalues:    26.4375    28.8620    42.4165
     13  H    Isotropic =    32.0354   Anisotropy =     7.2287
   XX=    33.5571   YX=     0.4069   ZX=    -1.3932
   XY=    -0.1698   YY=    26.4836   ZY=    -1.2909
   XZ=    -1.5173   YZ=    -1.0716   ZZ=    36.0655
   Eigenvalues:    26.3396    32.9120    36.8545
     14  H    Isotropic =    32.7525   Anisotropy =    13.4869
   XX=    32.9078   YX=    -5.3786   ZX=     3.5064
   XY=    -6.0323   YY=    36.2896   ZY=    -1.9487
   XZ=     3.5171   YZ=    -2.4563   ZZ=    29.0601
   Eigenvalues:    26.7778    29.7359    41.7438
     15  H    Isotropic =    32.4388   Anisotropy =    15.2738
   XX=    38.5246   YX=     0.8293   ZX=    -6.4755
   XY=     0.6295   YY=    26.9633   ZY=    -0.5174
   XZ=    -6.7056   YZ=    -0.5751   ZZ=    31.8285
   Eigenvalues:    26.9027    27.7923    42.6214
     16  H    Isotropic =    31.9371   Anisotropy =    10.2137
   XX=    33.7722   YX=     2.3199   ZX=     2.2325
   XY=     2.4639   YY=    32.6353   ZY=     4.4955
   XZ=     3.6195   YZ=     4.9877   ZZ=    29.4036
   Eigenvalues:    25.8624    31.2026    38.7462
     17  H    Isotropic =    32.1772   Anisotropy =     8.4241
   XX=    31.4278   YX=     0.7517   ZX=    -0.4019
   XY=     0.2718   YY=    27.6100   ZY=     1.5043
   XZ=    -0.5128   YZ=     1.8583   ZZ=    37.4937
   Eigenvalues:    27.2512    31.4871    37.7933
     18  H    Isotropic =    32.5874   Anisotropy =    13.7361
   XX=    32.1395   YX=    -2.9901   ZX=    -0.5979
   XY=    -3.2254   YY=    40.7132   ZY=     0.6218
   XZ=    -0.6503   YZ=     0.3001   ZZ=    24.9094
   Eigenvalues:    24.8534    31.1639    41.7448
     19  H    Isotropic =    32.7520   Anisotropy =    10.0559
   XX=    32.4828   YX=    -0.0030   ZX=     0.7802
   XY=    -0.1036   YY=    27.5743   ZY=    -3.3124
   XZ=     1.2325   YZ=    -3.9412   ZZ=    38.1989
   Eigenvalues:    26.4442    32.3559    39.4559
     20  H    Isotropic =    32.3766   Anisotropy =    14.5772
   XX=    33.2436   YX=     5.7736   ZX=     2.5728
   XY=     5.6613   YY=    36.7784   ZY=     2.8799
   XZ=     2.8022   YZ=     3.2398   ZZ=    27.1077
   Eigenvalues:    25.9724    29.0626    42.0947
     21  H    Isotropic =    32.5262   Anisotropy =    13.3953
   XX=    29.1946   YX=     0.7153   ZX=    -1.6026
   XY=     0.7707   YY=    32.0295   ZY=    -6.5073
   XZ=    -1.9332   YZ=    -6.7654   ZZ=    36.3544
   Eigenvalues:    27.1082    29.0139    41.4564
     22  H    Isotropic =    32.9128   Anisotropy =    13.0443
   XX=    31.9958   YX=    -4.2650   ZX=    -0.2298
   XY=    -4.7742   YY=    39.1730   ZY=     2.2411
   XZ=    -0.3572   YZ=     1.6612   ZZ=    27.5696
   Eigenvalues:    27.1888    29.9406    41.6089
     23  H    Isotropic =    32.4786   Anisotropy =    13.0143
   XX=    29.2574   YX=     0.1672   ZX=    -1.1740
   XY=     0.1029   YY=    27.4600   ZY=     1.9070
   XZ=    -1.5938   YZ=     2.0086   ZZ=    40.7184
   Eigenvalues:    27.1221    29.1590    41.1548
     24  H    Isotropic =    35.3201   Anisotropy =    18.8626
   XX=    29.8046   YX=    -5.7248   ZX=    -0.2133
   XY=    -5.1267   YY=    44.6728   ZY=    -5.8741
   XZ=    -0.3557   YZ=    -4.5281   ZZ=    31.4828
   Eigenvalues:    26.9634    31.1016    47.8952
     25  H    Isotropic =    32.4224   Anisotropy =    12.5993
   XX=    32.2255   YX=    -4.4704   ZX=     1.0099
   XY=    -4.2356   YY=    37.9681   ZY=    -2.5092
   XZ=     1.0049   YZ=    -2.4216   ZZ=    27.0735
   Eigenvalues:    26.5405    29.9048    40.8219
     26  H    Isotropic =    32.1485   Anisotropy =     9.3135
   XX=    29.8210   YX=    -1.6806   ZX=    -2.0735
   XY=    -1.3812   YY=    34.7057   ZY=    -4.8713
   XZ=    -2.1780   YZ=    -4.8259   ZZ=    31.9187
   Eigenvalues:    26.3123    31.7757    38.3575
     27  H    Isotropic =    32.3537   Anisotropy =    10.4624
   XX=    31.8898   YX=     2.9237   ZX=     0.4766
   XY=     2.6908   YY=    29.2905   ZY=     5.0655
   XZ=     0.7880   YZ=     5.4982   ZZ=    35.8807
   Eigenvalues:    25.5936    32.1388    39.3286
     28  H    Isotropic =    32.5846   Anisotropy =    14.9948
   XX=    38.8947   YX=    -2.5510   ZX=    -5.5967
   XY=    -2.4417   YY=    26.8453   ZY=     1.5213
   XZ=    -5.6313   YZ=     1.5228   ZZ=    32.0140
   Eigenvalues:    26.2984    28.8744    42.5812
     29  H    Isotropic =    32.4058   Anisotropy =     9.3878
   XX=    31.7106   YX=     1.5150   ZX=     1.4046
   XY=     1.7716   YY=    38.2283   ZY=     0.4568
   XZ=     1.6227   YZ=     0.2795   ZZ=    27.2784
   Eigenvalues:    26.8092    31.7439    38.6643
     30  H    Isotropic =    32.5811   Anisotropy =    12.5035
   XX=    31.0099   YX=     0.9994   ZX=     2.6898
   XY=     0.9706   YY=    26.5648   ZY=     0.6585
   XZ=     2.6430   YZ=     0.1293   ZZ=    40.1687
   Eigenvalues:    26.3541    30.4725    40.9168
     31  H    Isotropic =    32.3691   Anisotropy =    14.6975
   XX=    42.1253   YX=    -0.4003   ZX=     0.7440
   XY=    -0.0232   YY=    26.7240   ZY=     1.0209
   XZ=     0.7591   YZ=     1.1113   ZZ=    28.2580
   Eigenvalues:    26.1598    28.7800    42.1675
 End of Minotr Frequency-dependent properties file   721 does not exist.
 End of Minotr Frequency-dependent properties file   722 does not exist.

 **********************************************************************

            Population analysis using the SCF density.

 **********************************************************************

 Orbital symmetries:
       Occupied  (A) (A) (A) (A) (A) (A) (A) (A) (A) (A) (A) (A)
                 (A) (A) (A) (A) (A) (A) (A) (A) (A) (A) (A) (A)
                 (A) (A) (A) (A) (A) (A) (A) (A) (A) (A) (A) (A)
                 (A) (A) (A) (A) (A) (A) (A) (A)
       Virtual   (A) (A) (A) (A) (A) (A) (A) (A) (A) (A) (A) (A)
                 (A) (A) (A) (A) (A) (A) (A) (A) (A) (A) (A) (A)
                 (A) (A) (A) (A) (A) (A) (A)
 The electronic state is 1-A.
 Alpha  occ. eigenvalues --  -20.23746 -11.08607 -11.04415 -11.04325 -11.04220
 Alpha  occ. eigenvalues --  -11.03795 -11.03276 -11.03054 -11.02638 -11.02448
 Alpha  occ. eigenvalues --  -11.01824  -1.28042  -1.07610  -1.03222  -0.96306
 Alpha  occ. eigenvalues --   -0.94983  -0.88123  -0.87799  -0.79316  -0.78775
 Alpha  occ. eigenvalues --   -0.72219  -0.67997  -0.63276  -0.60147  -0.58556
 Alpha  occ. eigenvalues --   -0.57145  -0.56471  -0.54193  -0.53472  -0.51887
 Alpha  occ. eigenvalues --   -0.50839  -0.49934  -0.49060  -0.48175  -0.45848
 Alpha  occ. eigenvalues --   -0.45222  -0.43612  -0.42379  -0.41971  -0.40567
 Alpha  occ. eigenvalues --   -0.39702  -0.38366  -0.36012  -0.32768
 Alpha virt. eigenvalues --    0.52970   0.56417   0.57903   0.59791   0.60788
 Alpha virt. eigenvalues --    0.61825   0.62680   0.65607   0.66674   0.67278
 Alpha virt. eigenvalues --    0.68733   0.69751   0.70516   0.71393   0.72613
 Alpha virt. eigenvalues --    0.73214   0.73580   0.75610   0.76290   0.77301
 Alpha virt. eigenvalues --    0.77558   0.77802   0.79407   0.80216   0.80281
 Alpha virt. eigenvalues --    0.81915   0.82323   0.83375   0.83768   0.84181
 Alpha virt. eigenvalues --    0.84918
          Condensed to atoms (all electrons):
              1          2          3          4          5          6
     1  C    4.745728   0.364386  -0.000416  -0.001254   0.000060  -0.023760
     2  C    0.364386   4.742480  -0.019470  -0.021040  -0.003614   0.362841
     3  C   -0.000416  -0.019470   4.739545  -0.022662   0.357753  -0.003635
     4  C   -0.001254  -0.021040  -0.022662   4.754778   0.361677   0.363237
     5  C    0.000060  -0.003614   0.357753   0.361677   4.770138  -0.021900
     6  C   -0.023760   0.362841  -0.003635   0.363237  -0.021900   4.754607
     7  C   -0.023039   0.361309   0.357019  -0.004230  -0.022222  -0.023042
     8  O   -0.000837  -0.000108   0.267327  -0.000518  -0.016494   0.000056
     9  C    0.000000   0.000002  -0.018104  -0.021164   0.358685   0.000638
    10  C    0.000000   0.000000  -0.000691  -0.002157  -0.019012   0.000009
    11  C    0.000000   0.000000  -0.002018   0.000633  -0.022393  -0.000004
    12  H    0.381807  -0.020433  -0.000010   0.000029  -0.000001  -0.001951
    13  H    0.382796  -0.019490   0.000019  -0.000364   0.000025  -0.001981
    14  H    0.382040  -0.020415   0.000018   0.000001  -0.000002   0.001252
    15  H   -0.025885   0.382945   0.001174   0.001227   0.000016  -0.023426
    16  H   -0.000013   0.001152   0.376303   0.001175  -0.023203   0.000016
    17  H   -0.000394  -0.001407  -0.001848   0.382367  -0.021257  -0.022686
    18  H    0.000007   0.001217   0.001193   0.382549  -0.021241  -0.021941
    19  H    0.000001   0.000091  -0.023628  -0.024530   0.379472  -0.002631
    20  H   -0.003307  -0.021118   0.000002  -0.021537   0.001221   0.382625
    21  H    0.001316  -0.022798   0.000042  -0.023571  -0.002027   0.381044
    22  H   -0.003411  -0.022020  -0.021804   0.000003   0.001089   0.001198
    23  H    0.001292  -0.022298  -0.021375   0.000061  -0.001101  -0.000987
    24  H    0.000011   0.000007  -0.041230   0.000010   0.002429  -0.000004
    25  H    0.000000  -0.000001   0.001082  -0.002417  -0.024000   0.000013
    26  H    0.000000   0.000000   0.000003   0.000027  -0.001060  -0.000001
    27  H    0.000000   0.000000   0.000019  -0.000896  -0.001766   0.000001
    28  H    0.000000   0.000000  -0.000006   0.000025   0.001092   0.000000
    29  H    0.000000   0.000000  -0.000639  -0.000004  -0.001268   0.000000
    30  H    0.000000   0.000000  -0.000047   0.000018  -0.002542   0.000000
    31  H    0.000000   0.000000   0.000020  -0.000013   0.001174   0.000000
              7          8          9         10         11         12
     1  C   -0.023039  -0.000837   0.000000   0.000000   0.000000   0.381807
     2  C    0.361309  -0.000108   0.000002   0.000000   0.000000  -0.020433
     3  C    0.357019   0.267327  -0.018104  -0.000691  -0.002018  -0.000010
     4  C   -0.004230  -0.000518  -0.021164  -0.002157   0.000633   0.000029
     5  C   -0.022222  -0.016494   0.358685  -0.019012  -0.022393  -0.000001
     6  C   -0.023042   0.000056   0.000638   0.000009  -0.000004  -0.001951
     7  C    4.784265  -0.019811   0.000548  -0.000003   0.000009   0.001229
     8  O   -0.019811   7.848591  -0.000241  -0.001062   0.000019   0.000012
     9  C    0.000548  -0.000241   4.735429   0.364708   0.363993   0.000000
    10  C   -0.000003  -0.001062   0.364708   4.740924  -0.026180   0.000000
    11  C    0.000009   0.000019   0.363993  -0.026180   4.744028   0.000000
    12  H    0.001229   0.000012   0.000000   0.000000   0.000000   0.634694
    13  H   -0.001174   0.000295   0.000000   0.000000   0.000000  -0.022036
    14  H   -0.002611   0.000010   0.000000   0.000000   0.000000  -0.021747
    15  H   -0.023739  -0.000010   0.000001   0.000000   0.000000  -0.003172
    16  H   -0.026915  -0.019797  -0.001569   0.000029  -0.000714   0.000001
    17  H    0.000097   0.000211  -0.001451  -0.000816  -0.000003   0.000041
    18  H    0.000016  -0.000002  -0.002345   0.000003   0.000016  -0.000003
    19  H   -0.001955   0.000546  -0.023857   0.001125  -0.002540   0.000000
    20  H    0.001189  -0.000001  -0.000013   0.000000   0.000000   0.000168
    21  H   -0.001062   0.000000   0.000007  -0.000001   0.000000   0.000025
    22  H    0.381001  -0.001575  -0.000012   0.000000   0.000000   0.000042
    23  H    0.379138   0.000637   0.000005   0.000000   0.000001  -0.000036
    24  H   -0.003226   0.258663  -0.000001   0.000047  -0.000003   0.000001
    25  H   -0.000013  -0.000007   0.381500  -0.025512  -0.024807   0.000000
    26  H    0.000000   0.000236  -0.019995   0.382704  -0.002562   0.000000
    27  H   -0.000001  -0.000001  -0.019568   0.383030   0.001317   0.000000
    28  H    0.000000   0.000016  -0.020407   0.381248  -0.002206   0.000000
    29  H    0.000002   0.000030  -0.020247  -0.002572   0.382462   0.000000
    30  H   -0.000003   0.000001  -0.020302   0.001318   0.381914   0.000000
    31  H    0.000000  -0.000001  -0.019835  -0.001987   0.382500   0.000000
             13         14         15         16         17         18
     1  C    0.382796   0.382040  -0.025885  -0.000013  -0.000394   0.000007
     2  C   -0.019490  -0.020415   0.382945   0.001152  -0.001407   0.001217
     3  C    0.000019   0.000018   0.001174   0.376303  -0.001848   0.001193
     4  C   -0.000364   0.000001   0.001227   0.001175   0.382367   0.382549
     5  C    0.000025  -0.000002   0.000016  -0.023203  -0.021257  -0.021241
     6  C   -0.001981   0.001252  -0.023426   0.000016  -0.022686  -0.021941
     7  C   -0.001174  -0.002611  -0.023739  -0.026915   0.000097   0.000016
     8  O    0.000295   0.000010  -0.000010  -0.019797   0.000211  -0.000002
     9  C    0.000000   0.000000   0.000001  -0.001569  -0.001451  -0.002345
    10  C    0.000000   0.000000   0.000000   0.000029  -0.000816   0.000003
    11  C    0.000000   0.000000   0.000000  -0.000714  -0.000003   0.000016
    12  H   -0.022036  -0.021747  -0.003172   0.000001   0.000041  -0.000003
    13  H    0.616154  -0.021636   0.001932   0.000002  -0.000471  -0.000006
    14  H   -0.021636   0.636169  -0.002050  -0.000003  -0.000006   0.000001
    15  H    0.001932  -0.002050   0.654520  -0.000033  -0.000006  -0.000031
    16  H    0.000002  -0.000003  -0.000033   0.663325   0.000004  -0.000030
    17  H   -0.000471  -0.000006  -0.000006   0.000004   0.632770  -0.023500
    18  H   -0.000006   0.000001  -0.000031  -0.000030  -0.023500   0.642267
    19  H   -0.000001   0.000000  -0.000020  -0.002182   0.001909  -0.002347
    20  H    0.000005   0.000040  -0.001149   0.000002  -0.002619  -0.001935
    21  H    0.000003  -0.000036  -0.003932  -0.000009   0.001970  -0.002960
    22  H    0.000017   0.000221  -0.001089  -0.001608  -0.000009   0.000002
    23  H   -0.000008   0.000034  -0.004297  -0.002778   0.000003  -0.000006
    24  H   -0.000232  -0.000033  -0.000005  -0.003534  -0.000036   0.000001
    25  H    0.000000   0.000000   0.000000   0.000003   0.000038   0.000204
    26  H    0.000000   0.000000   0.000000   0.000008   0.000032   0.000004
    27  H   -0.000001   0.000000   0.000000   0.000001  -0.000832   0.000018
    28  H    0.000000   0.000000   0.000000  -0.000002   0.000001  -0.000008
    29  H    0.000000   0.000000   0.000000  -0.000816   0.000001   0.000000
    30  H    0.000000   0.000000   0.000000  -0.000008   0.000000   0.000002
    31  H    0.000000   0.000000   0.000000   0.000006   0.000000  -0.000001
             19         20         21         22         23         24
     1  C    0.000001  -0.003307   0.001316  -0.003411   0.001292   0.000011
     2  C    0.000091  -0.021118  -0.022798  -0.022020  -0.022298   0.000007
     3  C   -0.023628   0.000002   0.000042  -0.021804  -0.021375  -0.041230
     4  C   -0.024530  -0.021537  -0.023571   0.000003   0.000061   0.000010
     5  C    0.379472   0.001221  -0.002027   0.001089  -0.001101   0.002429
     6  C   -0.002631   0.382625   0.381044   0.001198  -0.000987  -0.000004
     7  C   -0.001955   0.001189  -0.001062   0.381001   0.379138  -0.003226
     8  O    0.000546  -0.000001   0.000000  -0.001575   0.000637   0.258663
     9  C   -0.023857  -0.000013   0.000007  -0.000012   0.000005  -0.000001
    10  C    0.001125   0.000000  -0.000001   0.000000   0.000000   0.000047
    11  C   -0.002540   0.000000   0.000000   0.000000   0.000001  -0.000003
    12  H    0.000000   0.000168   0.000025   0.000042  -0.000036   0.000001
    13  H   -0.000001   0.000005   0.000003   0.000017  -0.000008  -0.000232
    14  H    0.000000   0.000040  -0.000036   0.000221   0.000034  -0.000033
    15  H   -0.000020  -0.001149  -0.003932  -0.001089  -0.004297  -0.000005
    16  H   -0.002182   0.000002  -0.000009  -0.001608  -0.002778  -0.003534
    17  H    0.001909  -0.002619   0.001970  -0.000009   0.000003  -0.000036
    18  H   -0.002347  -0.001935  -0.002960   0.000002  -0.000006   0.000001
    19  H    0.657281   0.000019   0.000352   0.000025  -0.000081  -0.000075
    20  H    0.000019   0.639546  -0.023526  -0.000033  -0.000001   0.000000
    21  H    0.000352  -0.023526   0.650439  -0.000001   0.000201   0.000000
    22  H    0.000025  -0.000033  -0.000001   0.644284  -0.022317   0.000592
    23  H   -0.000081  -0.000001   0.000201  -0.022317   0.643862   0.000003
    24  H   -0.000075   0.000000   0.000000   0.000592   0.000003   0.609009
    25  H   -0.002979  -0.000001   0.000004   0.000000   0.000000   0.000002
    26  H   -0.000006   0.000000   0.000000   0.000000   0.000000   0.000031
    27  H    0.000010   0.000001   0.000000   0.000000   0.000000   0.000000
    28  H   -0.000030   0.000000   0.000000   0.000000   0.000000  -0.000002
    29  H    0.000028   0.000000   0.000000   0.000001   0.000000   0.000004
    30  H    0.000228   0.000000   0.000000   0.000000   0.000000   0.000000
    31  H    0.000019   0.000000   0.000000   0.000000   0.000000   0.000000
             25         26         27         28         29         30
     1  C    0.000000   0.000000   0.000000   0.000000   0.000000   0.000000
     2  C   -0.000001   0.000000   0.000000   0.000000   0.000000   0.000000
     3  C    0.001082   0.000003   0.000019  -0.000006  -0.000639  -0.000047
     4  C   -0.002417   0.000027  -0.000896   0.000025  -0.000004   0.000018
     5  C   -0.024000  -0.001060  -0.001766   0.001092  -0.001268  -0.002542
     6  C    0.000013  -0.000001   0.000001   0.000000   0.000000   0.000000
     7  C   -0.000013   0.000000  -0.000001   0.000000   0.000002  -0.000003
     8  O   -0.000007   0.000236  -0.000001   0.000016   0.000030   0.000001
     9  C    0.381500  -0.019995  -0.019568  -0.020407  -0.020247  -0.020302
    10  C   -0.025512   0.382704   0.383030   0.381248  -0.002572   0.001318
    11  C   -0.024807  -0.002562   0.001317  -0.002206   0.382462   0.381914
    12  H    0.000000   0.000000   0.000000   0.000000   0.000000   0.000000
    13  H    0.000000   0.000000  -0.000001   0.000000   0.000000   0.000000
    14  H    0.000000   0.000000   0.000000   0.000000   0.000000   0.000000
    15  H    0.000000   0.000000   0.000000   0.000000   0.000000   0.000000
    16  H    0.000003   0.000008   0.000001  -0.000002  -0.000816  -0.000008
    17  H    0.000038   0.000032  -0.000832   0.000001   0.000001   0.000000
    18  H    0.000204   0.000004   0.000018  -0.000008   0.000000   0.000002
    19  H   -0.002979  -0.000006   0.000010  -0.000030   0.000028   0.000228
    20  H   -0.000001   0.000000   0.000001   0.000000   0.000000   0.000000
    21  H    0.000004   0.000000   0.000000   0.000000   0.000000   0.000000
    22  H    0.000000   0.000000   0.000000   0.000000   0.000001   0.000000
    23  H    0.000000   0.000000   0.000000   0.000000   0.000000   0.000000
    24  H    0.000002   0.000031   0.000000  -0.000002   0.000004   0.000000
    25  H    0.657442   0.001930  -0.001862  -0.003194   0.001937  -0.001870
    26  H    0.001930   0.614909  -0.020951  -0.022311   0.000379   0.000017
    27  H   -0.001862  -0.020951   0.628961  -0.022360   0.000016  -0.000037
    28  H   -0.003194  -0.022311  -0.022360   0.639080  -0.000012   0.000024
    29  H    0.001937   0.000379   0.000016  -0.000012   0.630717  -0.021786
    30  H   -0.001870   0.000017  -0.000037   0.000024  -0.021786   0.635171
    31  H   -0.003113  -0.000020   0.000022   0.000093  -0.022033  -0.021781
             31
     1  C    0.000000
     2  C    0.000000
     3  C    0.000020
     4  C   -0.000013
     5  C    0.001174
     6  C    0.000000
     7  C    0.000000
     8  O   -0.000001
     9  C   -0.019835
    10  C   -0.001987
    11  C    0.382500
    12  H    0.000000
    13  H    0.000000
    14  H    0.000000
    15  H    0.000000
    16  H    0.000006
    17  H    0.000000
    18  H   -0.000001
    19  H    0.000019
    20  H    0.000000
    21  H    0.000000
    22  H    0.000000
    23  H    0.000000
    24  H    0.000000
    25  H   -0.003113
    26  H   -0.000020
    27  H    0.000022
    28  H    0.000093
    29  H   -0.022033
    30  H   -0.021781
    31  H    0.631392
 Mulliken atomic charges:
              1
     1  C   -0.177131
     2  C   -0.022219
     3  C    0.076061
     4  C   -0.101461
     5  C   -0.029728
     6  C   -0.099588
     7  C   -0.112776
     8  O   -0.316184
     9  C   -0.016404
    10  C   -0.175154
    11  C   -0.173461
    12  H    0.051341
    13  H    0.066147
    14  H    0.048752
    15  H    0.047028
    16  H    0.041184
    17  H    0.057896
    18  H    0.048856
    19  H    0.045754
    20  H    0.050422
    21  H    0.044521
    22  H    0.045404
    23  H    0.050047
    24  H    0.177571
    25  H    0.045623
    26  H    0.066624
    27  H    0.054878
    28  H    0.048958
    29  H    0.053798
    30  H    0.049683
    31  H    0.053557
 Sum of Mulliken atomic charges =   0.00000
 Mulliken charges with hydrogens summed into heavy atoms:
              1
     1  C   -0.010891
     2  C    0.024809
     3  C    0.117245
     4  C    0.005291
     5  C    0.016026
     6  C   -0.004645
     7  C   -0.017325
     8  O   -0.138613
     9  C    0.029219
    10  C   -0.004694
    11  C   -0.016422
 Sum of Mulliken charges with hydrogens summed into heavy atoms =   0.00000
 Electronic spatial extent (au):  <R**2>=           1978.7586
 Charge=              0.0000 electrons
 Dipole moment (field-independent basis, Debye):
    X=              0.4902    Y=             -0.5699    Z=             -1.0614  Tot=              1.3006
 Quadrupole moment (field-independent basis, Debye-Ang):
   XX=            -68.1414   YY=            -64.1119   ZZ=            -68.8235
   XY=             -1.3189   XZ=              0.3381   YZ=              0.4189
 Traceless Quadrupole moment (field-independent basis, Debye-Ang):
   XX=             -1.1158   YY=              2.9137   ZZ=             -1.7979
   XY=             -1.3189   XZ=              0.3381   YZ=              0.4189
 Octapole moment (field-independent basis, Debye-Ang**2):
  XXX=             -0.8945  YYY=            -20.4669  ZZZ=              1.9864  XYY=              2.9770
  XXY=             -1.6772  XXZ=              2.3331  XZZ=              1.0621  YZZ=             -1.0418
  YYZ=              4.0319  XYZ=             -0.1003
 Hexadecapole moment (field-independent basis, Debye-Ang**3):
 XXXX=          -1662.5846 YYYY=           -447.9395 ZZZZ=           -396.6870 XXXY=             -3.5826
 XXXZ=             -7.5795 YYYX=             -8.8835 YYYZ=            -15.8954 ZZZX=              0.7475
 ZZZY=             -7.9996 XXYY=           -354.9262 XXZZ=           -350.8338 YYZZ=           -146.8329
 XXYZ=             -2.2511 YYXZ=              4.0842 ZZXY=              0.5371
 N-N= 7.048082355968D+02 E-N=-2.481846489366D+03  KE= 4.555202691429D+02
 ******************************Gaussian NBO Version 3.1******************************
             N A T U R A L   A T O M I C   O R B I T A L   A N D
          N A T U R A L   B O N D   O R B I T A L   A N A L Y S I S
 ******************************Gaussian NBO Version 3.1******************************
       /RESON  / : Allow strongly delocalized NBO set
       /NLMO   / : Form Natural Localized Molecular Orbitals
       /NMR /    : Analyze NMR Sheilding Tensor 

 Analyzing the SCF density

 Job title: comment                                                         

 Storage needed:     19864 in NPA,     23691 in NBO,     45933 in NLMO (  33549317 available)


 NATURAL POPULATIONS:  Natural atomic orbital occupancies 
                                                          
   NAO  Atom  No  lang   Type(AO)    Occupancy      Energy
 ----------------------------------------------------------
     1    C    1  S      Cor( 1S)     1.99997     -10.95804
     2    C    1  S      Val( 2S)     1.08035      -0.17583
     3    C    1  px     Val( 2p)     1.02887       0.08741
     4    C    1  py     Val( 2p)     1.02289       0.09087
     5    C    1  pz     Val( 2p)     1.00085       0.09439

     6    C    2  S      Cor( 1S)     1.99997     -10.98722
     7    C    2  S      Val( 2S)     1.08033      -0.19030
     8    C    2  px     Val( 2p)     0.97802       0.10691
     9    C    2  py     Val( 2p)     0.95762       0.11230
    10    C    2  pz     Val( 2p)     0.96766       0.11084

    11    C    3  S      Cor( 1S)     1.99989     -11.03512
    12    C    3  S      Val( 2S)     1.08681      -0.21611
    13    C    3  px     Val( 2p)     0.96885       0.08831
    14    C    3  py     Val( 2p)     0.97495       0.08242
    15    C    3  pz     Val( 2p)     0.82592       0.12985

    16    C    4  S      Cor( 1S)     1.99996     -10.96896
    17    C    4  S      Val( 2S)     1.08375      -0.18283
    18    C    4  px     Val( 2p)     0.97414       0.10400
    19    C    4  py     Val( 2p)     0.99706       0.09998
    20    C    4  pz     Val( 2p)     1.01008       0.09958

    21    C    5  S      Cor( 1S)     1.99995     -10.98873
    22    C    5  S      Val( 2S)     1.09981      -0.20784
    23    C    5  px     Val( 2p)     0.95927       0.10778
    24    C    5  py     Val( 2p)     0.95577       0.10780
    25    C    5  pz     Val( 2p)     0.99309       0.09984

    26    C    6  S      Cor( 1S)     1.99996     -10.97095
    27    C    6  S      Val( 2S)     1.08326      -0.18439
    28    C    6  px     Val( 2p)     0.98324       0.10180
    29    C    6  py     Val( 2p)     0.98469       0.10032
    30    C    6  pz     Val( 2p)     1.01080       0.09692

    31    C    7  S      Cor( 1S)     1.99996     -10.97688
    32    C    7  S      Val( 2S)     1.09421      -0.20142
    33    C    7  px     Val( 2p)     0.98503       0.09069
    34    C    7  py     Val( 2p)     0.99880       0.08854
    35    C    7  pz     Val( 2p)     1.00994       0.08370

    36    O    8  S      Cor( 1S)     1.99999     -20.14108
    37    O    8  S      Val( 2S)     1.74602      -0.99787
    38    O    8  px     Val( 2p)     1.86729      -0.32942
    39    O    8  py     Val( 2p)     1.34383      -0.11776
    40    O    8  pz     Val( 2p)     1.38004      -0.12993

    41    C    9  S      Cor( 1S)     1.99996     -10.98633
    42    C    9  S      Val( 2S)     1.08411      -0.19003
    43    C    9  px     Val( 2p)     0.94877       0.11742
    44    C    9  py     Val( 2p)     0.98661       0.10845
    45    C    9  pz     Val( 2p)     0.95602       0.11896

    46    C   10  S      Cor( 1S)     1.99997     -10.95183
    47    C   10  S      Val( 2S)     1.07947      -0.16825
    48    C   10  px     Val( 2p)     1.02507       0.09675
    49    C   10  py     Val( 2p)     1.03877       0.09458
    50    C   10  pz     Val( 2p)     0.98901       0.10289

    51    C   11  S      Cor( 1S)     1.99997     -10.96015
    52    C   11  S      Val( 2S)     1.08084      -0.17812
    53    C   11  px     Val( 2p)     1.01643       0.08794
    54    C   11  py     Val( 2p)     1.01719       0.09029
    55    C   11  pz     Val( 2p)     1.01480       0.09075

    56    H   12  S      Val( 1S)     0.96549       0.07832

    57    H   13  S      Val( 1S)     0.95266       0.09330

    58    H   14  S      Val( 1S)     0.96781       0.07568

    59    H   15  S      Val( 1S)     0.97733       0.06744

    60    H   16  S      Val( 1S)     0.99473       0.04972

    61    H   17  S      Val( 1S)     0.96414       0.08681

    62    H   18  S      Val( 1S)     0.97176       0.07420

    63    H   19  S      Val( 1S)     0.97904       0.06182

    64    H   20  S      Val( 1S)     0.97032       0.07403

    65    H   21  S      Val( 1S)     0.97609       0.07046

    66    H   22  S      Val( 1S)     0.97456       0.05980

    67    H   23  S      Val( 1S)     0.97015       0.06472

    68    H   24  S      Val( 1S)     0.80966       0.07437

    69    H   25  S      Val( 1S)     0.97952       0.06953

    70    H   26  S      Val( 1S)     0.95212       0.10039

    71    H   27  S      Val( 1S)     0.96244       0.09026

    72    H   28  S      Val( 1S)     0.96758       0.08192

    73    H   29  S      Val( 1S)     0.96371       0.07996

    74    H   30  S      Val( 1S)     0.96740       0.07549

    75    H   31  S      Val( 1S)     0.96358       0.07827


 Summary of Natural Population Analysis:                  
                                                          
                                       Natural Population 
                Natural  -----------------------------------------------
    Atom  No    Charge         Core      Valence    Rydberg      Total
 -----------------------------------------------------------------------
      C    1   -0.13293      1.99997     4.13296    0.00000     6.13293
      C    2    0.01640      1.99997     3.98363    0.00000     5.98360
      C    3    0.14358      1.99989     3.85653    0.00000     5.85642
      C    4   -0.06499      1.99996     4.06503    0.00000     6.06499
      C    5   -0.00790      1.99995     4.00795    0.00000     6.00790
      C    6   -0.06196      1.99996     4.06200    0.00000     6.06196
      C    7   -0.08794      1.99996     4.08798    0.00000     6.08794
      O    8   -0.33718      1.99999     6.33719    0.00000     8.33718
      C    9    0.02454      1.99996     3.97550    0.00000     5.97546
      C   10   -0.13228      1.99997     4.13231    0.00000     6.13228
      C   11   -0.12924      1.99997     4.12927    0.00000     6.12924
      H   12    0.03451      0.00000     0.96549    0.00000     0.96549
      H   13    0.04734      0.00000     0.95266    0.00000     0.95266
      H   14    0.03219      0.00000     0.96781    0.00000     0.96781
      H   15    0.02267      0.00000     0.97733    0.00000     0.97733
      H   16    0.00527      0.00000     0.99473    0.00000     0.99473
      H   17    0.03586      0.00000     0.96414    0.00000     0.96414
      H   18    0.02824      0.00000     0.97176    0.00000     0.97176
      H   19    0.02096      0.00000     0.97904    0.00000     0.97904
      H   20    0.02968      0.00000     0.97032    0.00000     0.97032
      H   21    0.02391      0.00000     0.97609    0.00000     0.97609
      H   22    0.02544      0.00000     0.97456    0.00000     0.97456
      H   23    0.02985      0.00000     0.97015    0.00000     0.97015
      H   24    0.19034      0.00000     0.80966    0.00000     0.80966
      H   25    0.02048      0.00000     0.97952    0.00000     0.97952
      H   26    0.04788      0.00000     0.95212    0.00000     0.95212
      H   27    0.03756      0.00000     0.96244    0.00000     0.96244
      H   28    0.03242      0.00000     0.96758    0.00000     0.96758
      H   29    0.03629      0.00000     0.96371    0.00000     0.96371
      H   30    0.03260      0.00000     0.96740    0.00000     0.96740
      H   31    0.03642      0.00000     0.96358    0.00000     0.96358
 =======================================================================
   * Total *    0.00000     21.99954    66.00046    0.00000    88.00000

                                 Natural Population      
 --------------------------------------------------------
   Core                      21.99954 ( 99.9979% of  22)
   Valence                   66.00046 (100.0007% of  66)
   Natural Minimal Basis     88.00000 (100.0000% of  88)
   Natural Rydberg Basis      0.00000 (  0.0000% of  88)
 --------------------------------------------------------

    Atom  No          Natural Electron Configuration
 ----------------------------------------------------------------------------
      C    1      [core]2S( 1.08)2p( 3.05)
      C    2      [core]2S( 1.08)2p( 2.90)
      C    3      [core]2S( 1.09)2p( 2.77)
      C    4      [core]2S( 1.08)2p( 2.98)
      C    5      [core]2S( 1.10)2p( 2.91)
      C    6      [core]2S( 1.08)2p( 2.98)
      C    7      [core]2S( 1.09)2p( 2.99)
      O    8      [core]2S( 1.75)2p( 4.59)
      C    9      [core]2S( 1.08)2p( 2.89)
      C   10      [core]2S( 1.08)2p( 3.05)
      C   11      [core]2S( 1.08)2p( 3.05)
      H   12            1S( 0.97)
      H   13            1S( 0.95)
      H   14            1S( 0.97)
      H   15            1S( 0.98)
      H   16            1S( 0.99)
      H   17            1S( 0.96)
      H   18            1S( 0.97)
      H   19            1S( 0.98)
      H   20            1S( 0.97)
      H   21            1S( 0.98)
      H   22            1S( 0.97)
      H   23            1S( 0.97)
      H   24            1S( 0.81)
      H   25            1S( 0.98)
      H   26            1S( 0.95)
      H   27            1S( 0.96)
      H   28            1S( 0.97)
      H   29            1S( 0.96)
      H   30            1S( 0.97)
      H   31            1S( 0.96)


 NATURAL BOND ORBITAL ANALYSIS:

                       Occupancies       Lewis Structure    Low   High
           Occ.    -------------------  -----------------   occ   occ
  Cycle   Thresh.   Lewis   Non-Lewis     CR  BD  3C  LP    (L)   (NL)   Dev
 =============================================================================
   1(1)    1.90    87.63604   0.36396     11  31   0   2     0      0    0.02
 -----------------------------------------------------------------------------

 Structure accepted: No low occupancy Lewis orbitals

 --------------------------------------------------------
   Core                     21.99954 ( 99.998% of  22)
   Valence Lewis            65.63651 ( 99.449% of  66)
  ==================       ============================
   Total Lewis              87.63604 ( 99.586% of  88)
  -----------------------------------------------------
   Valence non-Lewis         0.36396 (  0.414% of  88)
   Rydberg non-Lewis         0.00000 (  0.000% of  88)
  ==================       ============================
   Total non-Lewis           0.36396 (  0.414% of  88)
 --------------------------------------------------------


       (Occupancy)   Bond orbital/ Coefficients/ Hybrids
 ---------------------------------------------------------------------------------
     1. (1.99063) BD ( 1) C   1 - C   2  
                ( 50.79%)   0.7127* C   1 s( 25.85%)p 2.87( 74.15%)
                                            0.0001  0.5084 -0.2920  0.2003 -0.7849
                ( 49.21%)   0.7015* C   2 s( 25.22%)p 2.96( 74.78%)
                                            0.0000  0.5022  0.2389 -0.2085  0.8045
     2. (1.99480) BD ( 1) C   1 - H  12  
                ( 51.73%)   0.7192* C   1 s( 24.43%)p 3.09( 75.57%)
                                            0.0000  0.4943  0.5938  0.5843  0.2483
                ( 48.27%)   0.6948* H  12 s(100.00%)
                                            1.0000
     3. (1.99545) BD ( 1) C   1 - H  13  
                ( 52.45%)   0.7242* C   1 s( 25.07%)p 2.99( 74.93%)
                                            0.0000  0.5007 -0.6537 -0.0003  0.5674
                ( 47.55%)   0.6895* H  13 s(100.00%)
                                            1.0000
     4. (1.99475) BD ( 1) C   1 - H  14  
                ( 51.61%)   0.7184* C   1 s( 24.65%)p 3.06( 75.35%)
                                            0.0000  0.4965  0.3671 -0.7864 -0.0157
                ( 48.39%)   0.6956* H  14 s(100.00%)
                                            1.0000
     5. (1.98529) BD ( 1) C   2 - C   6  
                ( 49.71%)   0.7051* C   2 s( 25.24%)p 2.96( 74.76%)
                                            0.0000  0.5024 -0.3992  0.7670  0.0037
                ( 50.29%)   0.7091* C   6 s( 25.42%)p 2.93( 74.58%)
                                            0.0001  0.5042  0.3648 -0.7821  0.0322
     6. (1.98529) BD ( 1) C   2 - C   7  
                ( 49.24%)   0.7017* C   2 s( 25.20%)p 2.97( 74.80%)
                                            0.0000  0.5020 -0.5336 -0.6051 -0.3118
                ( 50.76%)   0.7124* C   7 s( 25.45%)p 2.93( 74.55%)
                                            0.0001  0.5045  0.4862  0.6111  0.3682
     7. (1.98429) BD ( 1) C   2 - H  15  
                ( 51.01%)   0.7142* C   2 s( 24.34%)p 3.11( 75.66%)
                                            0.0000  0.4933  0.7063  0.0469 -0.5055
                ( 48.99%)   0.6999* H  15 s(100.00%)
                                            1.0000
     8. (1.98201) BD ( 1) C   3 - C   5  
                ( 50.73%)   0.7123* C   3 s( 26.74%)p 2.74( 73.26%)
                                            0.0000  0.5171 -0.3497  0.7812 -0.0065
                ( 49.27%)   0.7019* C   5 s( 25.27%)p 2.96( 74.73%)
                                            0.0001  0.5027  0.3300 -0.7938  0.0910
     9. (1.98736) BD ( 1) C   3 - C   7  
                ( 49.28%)   0.7020* C   3 s( 25.49%)p 2.92( 74.51%)
                                            0.0000  0.5048  0.8110  0.0264 -0.2945
                ( 50.72%)   0.7122* C   7 s( 25.31%)p 2.95( 74.69%)
                                            0.0000  0.5031 -0.7976  0.0190  0.3323
    10. (1.98920) BD ( 1) C   3 - O   8  
                ( 40.90%)   0.6395* C   3 s( 22.30%)p 3.49( 77.70%)
                                            0.0000  0.4722  0.0170 -0.2980  0.8294
                ( 59.10%)   0.7688* O   8 s( 16.87%)p 4.93( 83.13%)
                                            0.0000  0.4107  0.0242  0.2604 -0.8735
    11. (1.98814) BD ( 1) C   3 - H  16  
                ( 50.56%)   0.7110* C   3 s( 25.48%)p 2.92( 74.52%)
                                            0.0000  0.5048 -0.4688 -0.5479 -0.4746
                ( 49.44%)   0.7031* H  16 s(100.00%)
                                            1.0000
    12. (1.98467) BD ( 1) C   4 - C   5  
                ( 50.22%)   0.7087* C   4 s( 25.22%)p 2.97( 74.78%)
                                            0.0001  0.5022 -0.4940 -0.5906 -0.3937
                ( 49.78%)   0.7055* C   5 s( 25.05%)p 2.99( 74.95%)
                                            0.0000  0.5005  0.4909  0.5701  0.4284
    13. (1.98961) BD ( 1) C   4 - C   6  
                ( 49.85%)   0.7060* C   4 s( 25.03%)p 3.00( 74.97%)
                                            0.0000  0.5003  0.7949 -0.0109 -0.3431
                ( 50.15%)   0.7082* C   6 s( 25.35%)p 2.94( 74.65%)
                                            0.0000  0.5035 -0.7927 -0.0310  0.3424
    14. (1.98981) BD ( 1) C   4 - H  17  
                ( 51.83%)   0.7199* C   4 s( 24.93%)p 3.01( 75.07%)
                                            0.0000  0.4993  0.0485 -0.1800  0.8461
                ( 48.17%)   0.6941* H  17 s(100.00%)
                                            1.0000
    15. (1.98941) BD ( 1) C   4 - H  18  
                ( 51.37%)   0.7167* C   4 s( 24.83%)p 3.03( 75.17%)
                                            0.0000  0.4983 -0.3488  0.7865 -0.1067
                ( 48.63%)   0.6973* H  18 s(100.00%)
                                            1.0000
    16. (1.97907) BD ( 1) C   5 - C   9  
                ( 50.34%)   0.7095* C   5 s( 25.74%)p 2.88( 74.26%)
                                            0.0001  0.5074 -0.8063  0.0209  0.3033
                ( 49.66%)   0.7047* C   9 s( 25.47%)p 2.93( 74.53%)
                                            0.0001  0.5047  0.8278 -0.1041 -0.2221
    17. (1.98207) BD ( 1) C   5 - H  19  
                ( 50.88%)   0.7133* C   5 s( 23.93%)p 3.18( 76.07%)
                                            0.0000  0.4892 -0.0051  0.2107 -0.8463
                ( 49.12%)   0.7008* H  19 s(100.00%)
                                            1.0000
    18. (1.98993) BD ( 1) C   6 - H  20  
                ( 51.47%)   0.7174* C   6 s( 25.02%)p 3.00( 74.98%)
                                            0.0000  0.5002  0.4853  0.5669  0.4393
                ( 48.53%)   0.6967* H  20 s(100.00%)
                                            1.0000
    19. (1.99056) BD ( 1) C   6 - H  21  
                ( 51.20%)   0.7155* C   6 s( 24.21%)p 3.13( 75.79%)
                                            0.0000  0.4921 -0.0560  0.2569 -0.8299
                ( 48.80%)   0.6986* H  21 s(100.00%)
                                            1.0000
    20. (1.98824) BD ( 1) C   7 - H  22  
                ( 51.23%)   0.7158* C   7 s( 25.03%)p 2.99( 74.97%)
                                            0.0000  0.5003  0.3544 -0.7779  0.1377
                ( 48.77%)   0.6983* H  22 s(100.00%)
                                            1.0000
    21. (1.98890) BD ( 1) C   7 - H  23  
                ( 51.43%)   0.7171* C   7 s( 24.21%)p 3.13( 75.79%)
                                            0.0000  0.4920 -0.0434  0.1449 -0.8573
                ( 48.57%)   0.6969* H  23 s(100.00%)
                                            1.0000
    22. (1.98889) BD ( 1) O   8 - H  24  
                ( 59.52%)   0.7715* O   8 s( 16.87%)p 4.93( 83.13%)
                                            0.0000 -0.4108 -0.3689  0.8326  0.0448
                ( 40.48%)   0.6362* H  24 s(100.00%)
                                           -1.0000
    23. (1.99025) BD ( 1) C   9 - C  10  
                ( 49.41%)   0.7029* C   9 s( 25.63%)p 2.90( 74.37%)
                                            0.0000  0.5063 -0.1014 -0.1505  0.8431
                ( 50.59%)   0.7113* C  10 s( 25.87%)p 2.87( 74.13%)
                                            0.0001  0.5087  0.1577  0.1166 -0.8383
    24. (1.98940) BD ( 1) C   9 - C  11  
                ( 48.87%)   0.6991* C   9 s( 24.86%)p 3.02( 75.14%)
                                            0.0000  0.4986 -0.4950 -0.5459 -0.4564
                ( 51.13%)   0.7150* C  11 s( 25.78%)p 2.88( 74.22%)
                                            0.0001  0.5078  0.5227  0.5117  0.4552
    25. (1.98368) BD ( 1) C   9 - H  25  
                ( 50.89%)   0.7134* C   9 s( 24.04%)p 3.16( 75.96%)
                                            0.0000  0.4904 -0.2439  0.8176 -0.1778
                ( 49.11%)   0.7008* H  25 s(100.00%)
                                            1.0000
    26. (1.99563) BD ( 1) C  10 - H  26  
                ( 52.48%)   0.7244* C  10 s( 25.01%)p 3.00( 74.99%)
                                            0.0000  0.5001  0.1533 -0.8240  0.2177
                ( 47.52%)   0.6894* H  26 s(100.00%)
                                            1.0000
    27. (1.99448) BD ( 1) C  10 - H  27  
                ( 51.90%)   0.7204* C  10 s( 24.91%)p 3.01( 75.09%)
                                            0.0000  0.4991  0.5071  0.5217  0.4708
                ( 48.10%)   0.6935* H  27 s(100.00%)
                                            1.0000
    28. (1.99414) BD ( 1) C  10 - H  28  
                ( 51.60%)   0.7183* C  10 s( 24.20%)p 3.13( 75.80%)
                                            0.0000  0.4920 -0.8334  0.1878  0.1679
                ( 48.40%)   0.6957* H  28 s(100.00%)
                                            1.0000
    29. (1.99519) BD ( 1) C  11 - H  29  
                ( 51.86%)   0.7202* C  11 s( 24.87%)p 3.02( 75.13%)
                                            0.0000  0.4987  0.1562 -0.8296  0.1969
                ( 48.14%)   0.6938* H  29 s(100.00%)
                                            1.0000
    30. (1.99519) BD ( 1) C  11 - H  30  
                ( 51.65%)   0.7187* C  11 s( 24.71%)p 3.05( 75.29%)
                                            0.0000  0.4971  0.1354  0.1230 -0.8482
                ( 48.35%)   0.6953* H  30 s(100.00%)
                                            1.0000
    31. (1.99473) BD ( 1) C  11 - H  31  
                ( 51.82%)   0.7199* C  11 s( 24.64%)p 3.06( 75.36%)
                                            0.0000  0.4964 -0.8271  0.1869  0.1860
                ( 48.18%)   0.6941* H  31 s(100.00%)
                                            1.0000
    32. (1.99997) CR ( 1) C   1           s(100.00%)
                                            1.0000  0.0000  0.0000  0.0000  0.0001
    33. (1.99997) CR ( 1) C   2           s(100.00%)
                                            1.0000  0.0000  0.0000  0.0000  0.0000
    34. (1.99989) CR ( 1) C   3           s(100.00%)
                                            1.0000  0.0000  0.0000  0.0000  0.0000
    35. (1.99996) CR ( 1) C   4           s(100.00%)
                                            1.0000  0.0000  0.0000  0.0001  0.0000
    36. (1.99995) CR ( 1) C   5           s(100.00%)
                                            1.0000 -0.0001  0.0000  0.0000 -0.0001
    37. (1.99996) CR ( 1) C   6           s(100.00%)
                                            1.0000  0.0000  0.0000  0.0001  0.0000
    38. (1.99996) CR ( 1) C   7           s(100.00%)
                                            1.0000  0.0000  0.0000 -0.0001  0.0000
    39. (1.99999) CR ( 1) O   8           s(100.00%)
                                            1.0000  0.0000  0.0000  0.0000  0.0000
    40. (1.99996) CR ( 1) C   9           s(100.00%)
                                            1.0000  0.0000 -0.0001  0.0000  0.0000
    41. (1.99997) CR ( 1) C  10           s(100.00%)
                                            1.0000  0.0000  0.0000  0.0000  0.0001
    42. (1.99997) CR ( 1) C  11           s(100.00%)
                                            1.0000  0.0000 -0.0001  0.0000  0.0000
    43. (1.99201) LP ( 1) O   8           s( 66.14%)p 0.51( 33.86%)
                                            0.0000  0.8133 -0.1590  0.3055  0.4690
    44. (1.97346) LP ( 2) O   8           s(  0.12%)p99.99( 99.88%)
                                            0.0000  0.0351 -0.9154 -0.3817 -0.1227
    45. (0.01101) BD*( 1) C   1 - C   2  
                ( 49.21%)   0.7015* C   1 s( 25.85%)p 2.87( 74.15%)
                                           -0.0001 -0.5084  0.2920 -0.2003  0.7849
                ( 50.79%)  -0.7127* C   2 s( 25.22%)p 2.96( 74.78%)
                                            0.0000 -0.5022 -0.2389  0.2085 -0.8045
    46. (0.00487) BD*( 1) C   1 - H  12  
                ( 48.27%)   0.6948* C   1 s( 24.43%)p 3.09( 75.57%)
                                            0.0000 -0.4943 -0.5938 -0.5843 -0.2483
                ( 51.73%)  -0.7192* H  12 s(100.00%)
                                           -1.0000
    47. (0.00743) BD*( 1) C   1 - H  13  
                ( 47.55%)   0.6895* C   1 s( 25.07%)p 2.99( 74.93%)
                                            0.0000 -0.5007  0.6537  0.0003 -0.5674
                ( 52.45%)  -0.7242* H  13 s(100.00%)
                                           -1.0000
    48. (0.00514) BD*( 1) C   1 - H  14  
                ( 48.39%)   0.6956* C   1 s( 24.65%)p 3.06( 75.35%)
                                            0.0000 -0.4965 -0.3671  0.7864  0.0157
                ( 51.61%)  -0.7184* H  14 s(100.00%)
                                           -1.0000
    49. (0.01626) BD*( 1) C   2 - C   6  
                ( 50.29%)   0.7091* C   2 s( 25.24%)p 2.96( 74.76%)
                                            0.0000  0.5024 -0.3992  0.7670  0.0037
                ( 49.71%)  -0.7051* C   6 s( 25.42%)p 2.93( 74.58%)
                                            0.0001  0.5042  0.3648 -0.7821  0.0322
    50. (0.01691) BD*( 1) C   2 - C   7  
                ( 50.76%)   0.7124* C   2 s( 25.20%)p 2.97( 74.80%)
                                            0.0000  0.5020 -0.5336 -0.6051 -0.3118
                ( 49.24%)  -0.7017* C   7 s( 25.45%)p 2.93( 74.55%)
                                            0.0001  0.5045  0.4862  0.6111  0.3682
    51. (0.01016) BD*( 1) C   2 - H  15  
                ( 48.99%)   0.6999* C   2 s( 24.34%)p 3.11( 75.66%)
                                            0.0000 -0.4933 -0.7063 -0.0469  0.5055
                ( 51.01%)  -0.7142* H  15 s(100.00%)
                                           -1.0000
    52. (0.02787) BD*( 1) C   3 - C   5  
                ( 49.27%)   0.7019* C   3 s( 26.74%)p 2.74( 73.26%)
                                            0.0000 -0.5171  0.3497 -0.7812  0.0065
                ( 50.73%)  -0.7123* C   5 s( 25.27%)p 2.96( 74.73%)
                                           -0.0001 -0.5027 -0.3300  0.7938 -0.0910
    53. (0.02834) BD*( 1) C   3 - C   7  
                ( 50.72%)   0.7122* C   3 s( 25.49%)p 2.92( 74.51%)
                                            0.0000  0.5048  0.8110  0.0264 -0.2945
                ( 49.28%)  -0.7020* C   7 s( 25.31%)p 2.95( 74.69%)
                                            0.0000  0.5031 -0.7976  0.0190  0.3323
    54. (0.02253) BD*( 1) C   3 - O   8  
                ( 59.10%)   0.7688* C   3 s( 22.30%)p 3.49( 77.70%)
                                            0.0000  0.4722  0.0170 -0.2980  0.8294
                ( 40.90%)  -0.6395* O   8 s( 16.87%)p 4.93( 83.13%)
                                            0.0000  0.4107  0.0242  0.2604 -0.8735
    55. (0.02324) BD*( 1) C   3 - H  16  
                ( 49.44%)   0.7031* C   3 s( 25.48%)p 2.92( 74.52%)
                                            0.0000 -0.5048  0.4688  0.5479  0.4746
                ( 50.56%)  -0.7110* H  16 s(100.00%)
                                           -1.0000
    56. (0.01602) BD*( 1) C   4 - C   5  
                ( 49.78%)   0.7055* C   4 s( 25.22%)p 2.97( 74.78%)
                                           -0.0001 -0.5022  0.4940  0.5906  0.3937
                ( 50.22%)  -0.7087* C   5 s( 25.05%)p 2.99( 74.95%)
                                            0.0000 -0.5005 -0.4909 -0.5701 -0.4284
    57. (0.01173) BD*( 1) C   4 - C   6  
                ( 50.15%)   0.7082* C   4 s( 25.03%)p 3.00( 74.97%)
                                            0.0000  0.5003  0.7949 -0.0109 -0.3431
                ( 49.85%)  -0.7060* C   6 s( 25.35%)p 2.94( 74.65%)
                                            0.0000  0.5035 -0.7927 -0.0310  0.3424
    58. (0.01082) BD*( 1) C   4 - H  17  
                ( 48.17%)   0.6941* C   4 s( 24.93%)p 3.01( 75.07%)
                                            0.0000 -0.4993 -0.0485  0.1800 -0.8461
                ( 51.83%)  -0.7199* H  17 s(100.00%)
                                           -1.0000
    59. (0.00845) BD*( 1) C   4 - H  18  
                ( 48.63%)   0.6973* C   4 s( 24.83%)p 3.03( 75.17%)
                                            0.0000 -0.4983  0.3488 -0.7865  0.1067
                ( 51.37%)  -0.7167* H  18 s(100.00%)
                                           -1.0000
    60. (0.02283) BD*( 1) C   5 - C   9  
                ( 49.66%)   0.7047* C   5 s( 25.74%)p 2.88( 74.26%)
                                           -0.0001 -0.5074  0.8063 -0.0209 -0.3033
                ( 50.34%)  -0.7095* C   9 s( 25.47%)p 2.93( 74.53%)
                                           -0.0001 -0.5047 -0.8278  0.1041  0.2221
    61. (0.01081) BD*( 1) C   5 - H  19  
                ( 49.12%)   0.7008* C   5 s( 23.93%)p 3.18( 76.07%)
                                            0.0000 -0.4892  0.0051 -0.2107  0.8463
                ( 50.88%)  -0.7133* H  19 s(100.00%)
                                           -1.0000
    62. (0.00886) BD*( 1) C   6 - H  20  
                ( 48.53%)   0.6967* C   6 s( 25.02%)p 3.00( 74.98%)
                                            0.0000 -0.5002 -0.4853 -0.5669 -0.4393
                ( 51.47%)  -0.7174* H  20 s(100.00%)
                                           -1.0000
    63. (0.00900) BD*( 1) C   6 - H  21  
                ( 48.80%)   0.6986* C   6 s( 24.21%)p 3.13( 75.79%)
                                            0.0000 -0.4921  0.0560 -0.2569  0.8299
                ( 51.20%)  -0.7155* H  21 s(100.00%)
                                           -1.0000
    64. (0.00963) BD*( 1) C   7 - H  22  
                ( 48.77%)   0.6983* C   7 s( 25.03%)p 2.99( 74.97%)
                                            0.0000 -0.5003 -0.3544  0.7779 -0.1377
                ( 51.23%)  -0.7158* H  22 s(100.00%)
                                           -1.0000
    65. (0.00793) BD*( 1) C   7 - H  23  
                ( 48.57%)   0.6969* C   7 s( 24.21%)p 3.13( 75.79%)
                                            0.0000 -0.4920  0.0434 -0.1449  0.8573
                ( 51.43%)  -0.7171* H  23 s(100.00%)
                                           -1.0000
    66. (0.00766) BD*( 1) O   8 - H  24  
                ( 40.48%)   0.6362* O   8 s( 16.87%)p 4.93( 83.13%)
                                            0.0000  0.4108  0.3689 -0.8326 -0.0448
                ( 59.52%)  -0.7715* H  24 s(100.00%)
                                            1.0000
    67. (0.01087) BD*( 1) C   9 - C  10  
                ( 50.59%)   0.7113* C   9 s( 25.63%)p 2.90( 74.37%)
                                            0.0000  0.5063 -0.1014 -0.1505  0.8431
                ( 49.41%)  -0.7029* C  10 s( 25.87%)p 2.87( 74.13%)
                                            0.0001  0.5087  0.1577  0.1166 -0.8383
    68. (0.01047) BD*( 1) C   9 - C  11  
                ( 51.13%)   0.7150* C   9 s( 24.86%)p 3.02( 75.14%)
                                            0.0000  0.4986 -0.4950 -0.5459 -0.4564
                ( 48.87%)  -0.6991* C  11 s( 25.78%)p 2.88( 74.22%)
                                            0.0001  0.5078  0.5227  0.5117  0.4552
    69. (0.01052) BD*( 1) C   9 - H  25  
                ( 49.11%)   0.7008* C   9 s( 24.04%)p 3.16( 75.96%)
                                            0.0000 -0.4904  0.2439 -0.8176  0.1778
                ( 50.89%)  -0.7134* H  25 s(100.00%)
                                           -1.0000
    70. (0.00711) BD*( 1) C  10 - H  26  
                ( 47.52%)   0.6894* C  10 s( 25.01%)p 3.00( 74.99%)
                                            0.0000 -0.5001 -0.1533  0.8240 -0.2177
                ( 52.48%)  -0.7244* H  26 s(100.00%)
                                           -1.0000
    71. (0.00605) BD*( 1) C  10 - H  27  
                ( 48.10%)   0.6935* C  10 s( 24.91%)p 3.01( 75.09%)
                                            0.0000 -0.4991 -0.5071 -0.5217 -0.4708
                ( 51.90%)  -0.7204* H  27 s(100.00%)
                                           -1.0000
    72. (0.00477) BD*( 1) C  10 - H  28  
                ( 48.40%)   0.6957* C  10 s( 24.20%)p 3.13( 75.80%)
                                            0.0000 -0.4920  0.8334 -0.1878 -0.1679
[...]
   38     200.0118       -0.0023     200.0141         0.0031     200.0087
 Sum      212.4611      -24.0628     236.5239       -28.0049     240.4660

 Contributions to Isotropic shielding for atom    8 (   357.1477 ppm):
                         Standard Origin              Atomic Origin
 NLMO      Total    Paramagnetic  Diamagnetic   Paramagnetic  Diamagnetic
   10      25.5272        9.8627      15.6645        14.8694      10.6578
   11       0.4189       -0.1275       0.5463        -0.8552       1.2741
   20      -0.7765       -1.3693       0.5928        -1.6849       0.9084
   21      -0.9055       -1.3144       0.4089        -1.2331       0.3275
   22      20.3824       11.0028       9.3796         5.9434      14.4391
   26      -0.2949       -1.1534       0.8586        -0.9007       0.6058
   39     271.1731       -0.0043     271.1773        -0.0038     271.1769
   43      34.3165       -3.5974      37.9139        -3.0780      37.3945
   44       4.9131      -34.3248      39.2378       -35.0122      39.9253
 Sum      354.7543      -21.0255     375.7799       -21.9551     376.7095

 Contributions to Isotropic shielding for atom    9 (   212.4534 ppm):
                         Standard Origin              Atomic Origin
 NLMO      Total    Paramagnetic  Diamagnetic   Paramagnetic  Diamagnetic
   10       0.0978       -0.3403       0.4381        -1.1983       1.2962
   15      -0.1106       -0.4571       0.3465        -1.0081       0.8975
   16       5.2794       -9.3972      14.6766        -2.3519       7.6313
   23      -0.5743       -6.7039       6.1296        -8.3077       7.7334
   24      -1.8383       -5.0399       3.2016        -9.2437       7.4053
   25       5.1075       -0.6770       5.7845        -5.6945      10.8020
   26       0.8261       -0.3420       1.1681        -0.2241       1.0502
   27       0.6276       -0.5122       1.1398        -0.3790       1.0066
   28       0.5962       -0.1649       0.7611        -0.4306       1.0268
   29       1.0467       -0.3328       1.3795         0.0193       1.0274
   30       0.6877       -0.6105       1.2982        -0.3460       1.0337
   31       0.6133       -0.3297       0.9429        -0.4188       1.0321
   40     199.9253       -0.0025     199.9278         0.0029     199.9224
 Sum      212.2844      -24.9099     237.1943       -29.5806     241.8650

 Contributions to Isotropic shielding for atom   10 (   223.5393 ppm):
                         Standard Origin              Atomic Origin
 NLMO      Total    Paramagnetic  Diamagnetic   Paramagnetic  Diamagnetic
   10       0.0949       -0.2673       0.3622        -1.0551       1.1500
   23       4.0485       -8.7885      12.8370        -3.7505       7.7989
   24      -0.3827       -0.0279      -0.3547        -1.0457       0.6630
   25       0.3014       -0.0120       0.3134        -0.7185       1.0199
   26       6.5160       -5.3187      11.8348        -4.8587      11.3747
   27       6.8121       -4.9222      11.7343        -4.3360      11.1481
   28       5.7087        3.5836       2.1251        -5.2727      10.9814
   41     200.0733       -0.0026     200.0759         0.0016     200.0717
 Sum      223.1722      -15.7556     238.9278       -21.0357     244.2079

 Contributions to Isotropic shielding for atom   11 (   221.3316 ppm):
                         Standard Origin              Atomic Origin
 NLMO      Total    Paramagnetic  Diamagnetic   Paramagnetic  Diamagnetic
   23      -0.4794        0.0167      -0.4961        -1.2037       0.7243
   24       4.2600      -11.3420      15.6020        -3.7855       8.0455
   25       0.3012        0.1715       0.1297        -0.7036       1.0048
   29       6.4379       -5.1097      11.5475        -4.7072      11.1451
   30       5.6258       -3.6689       9.2947        -5.4210      11.0468
   31       5.1058        2.9340       2.1719        -5.9944      11.1002
   42     200.0749       -0.0034     200.0783         0.0021     200.0728
 Sum      221.3262      -17.0017     238.3279       -21.8133     243.1395

 Contributions to Isotropic shielding for atom   12 (    32.5720 ppm):
                         Standard Origin              Atomic Origin
 NLMO      Total    Paramagnetic  Diamagnetic   Paramagnetic  Diamagnetic
    1       1.2457        0.5954       0.6503         0.2165       1.0291
    2      26.4195        0.0674      26.3521         0.4326      25.9869
    3       2.0899        0.7676       1.3223         0.1961       1.8938
    4       1.9364        2.2994      -0.3630         0.0991       1.8373
 Sum       31.6915        3.7298      27.9617         0.9443      30.7471

 Contributions to Isotropic shielding for atom   13 (    32.0354 ppm):
                         Standard Origin              Atomic Origin
 NLMO      Total    Paramagnetic  Diamagnetic   Paramagnetic  Diamagnetic
    1       1.5971       -1.2403       2.8374         0.7052       0.8918
    2       1.9565        1.1412       0.8153         0.0995       1.8570
    3      26.0079        0.4050      25.6029         0.3857      25.6222
    4       1.9630        0.8070       1.1560         0.1416       1.8214
   43      -0.2224        0.1101      -0.3324         0.8119      -1.0343
 Sum       31.3021        1.2230      30.0791         2.1439      29.1582

 Contributions to Isotropic shielding for atom   14 (    32.7525 ppm):
                         Standard Origin              Atomic Origin
 NLMO      Total    Paramagnetic  Diamagnetic   Paramagnetic  Diamagnetic
    1       1.3412        0.2986       1.0426         0.3374       1.0038
    2       1.9311        2.3874      -0.4563         0.1020       1.8291
    3       2.1269        0.5004       1.6265         0.2497       1.8772
    4      26.4522        0.1309      26.3214         0.4127      26.0395
    6      -0.1122        0.1710      -0.2832        -1.0035       0.8913
 Sum       31.7393        3.4883      28.2509         0.0983      31.6409

 Contributions to Isotropic shielding for atom   15 (    32.4388 ppm):
                         Standard Origin              Atomic Origin
 NLMO      Total    Paramagnetic  Diamagnetic   Paramagnetic  Diamagnetic
    1       0.7958        2.2503      -1.4545        -0.2637       1.0595
    2       0.2160       -0.2709       0.4869        -0.7902       1.0062
    5       1.2002        1.4357      -0.2354         0.1929       1.0074
    6       1.2719        1.2036       0.0683         0.2655       1.0064
    7      26.6071       -0.3399      26.9470         0.5085      26.0986
   19       0.1257        0.0202       0.1055        -0.9262       1.0519
   21       0.0879        0.1173      -0.0294        -0.9893       1.0772
 Sum       30.3046        4.4162      25.8884        -2.0025      32.3071

 Contributions to Isotropic shielding for atom   16 (    31.9371 ppm):
                         Standard Origin              Atomic Origin
 NLMO      Total    Paramagnetic  Diamagnetic   Paramagnetic  Diamagnetic
    8       0.9767        0.3214       0.6554        -0.2000       1.1767
    9       0.6409        0.8652      -0.2243        -0.3798       1.0207
   10       0.7027        0.9084      -0.2057        -0.8609       1.5636
   11      26.8190        0.3148      26.5042         0.7874      26.0317
   21       0.1962       -0.4625       0.6587        -0.8520       1.0481
   29      -0.2860       -1.4033       1.1172        -1.0108       0.7248
 Sum       29.0495        0.5440      28.5056        -2.5160      31.5655

 Contributions to Isotropic shielding for atom   17 (    32.1772 ppm):
                         Standard Origin              Atomic Origin
 NLMO      Total    Paramagnetic  Diamagnetic   Paramagnetic  Diamagnetic
   10       0.1320       -0.5037       0.6356        -1.2374       1.3694
   12       1.3832       -0.1012       1.4844         0.5195       0.8637
   13       1.0998        0.7552       0.3446         0.1529       0.9469
   14      26.2218        0.2231      25.9988         0.4060      25.8158
   15       1.9914        1.3522       0.6392         0.2355       1.7560
   23       0.0047       -0.6630       0.6678        -1.0231       1.0278
   27      -0.4011       -1.3674       0.9663        -0.8746       0.4735
   43      -0.5237        0.1306      -0.6544         0.5083      -1.0320
 Sum       29.9081       -0.1741      30.0823        -1.3130      31.2212

 Contributions to Isotropic shielding for atom   18 (    32.5874 ppm):
                         Standard Origin              Atomic Origin
 NLMO      Total    Paramagnetic  Diamagnetic   Paramagnetic  Diamagnetic
   12       1.3330        0.6540       0.6790         0.3981       0.9349
   13       1.0436        1.5109      -0.4674         0.0368       1.0068
   14       2.1523        1.1465       1.0057         0.3772       1.7751
   15      26.4666        0.0378      26.4287         0.4463      26.0202
   16      -0.0273        0.0625      -0.0898        -1.0025       0.9753
   19       0.2130       -0.3831       0.5961        -0.7901       1.0031
 Sum       31.1811        3.0287      28.1524        -0.5343      31.7154

 Contributions to Isotropic shielding for atom   19 (    32.7520 ppm):
                         Standard Origin              Atomic Origin
 NLMO      Total    Paramagnetic  Diamagnetic   Paramagnetic  Diamagnetic
    8       1.3691        0.8570       0.5121         0.4436       0.9255
   12       1.2001        0.9268       0.2732         0.1973       1.0028
   16       1.0687        1.3866      -0.3179        -0.0818       1.1506
   17      26.5529       -0.0192      26.5721         0.4434      26.1095
   30      -0.1365       -1.4325       1.2959        -1.0106       0.8741
 Sum       30.0542        1.7187      28.3355        -0.0082      30.0624

 Contributions to Isotropic shielding for atom   20 (    32.3766 ppm):
                         Standard Origin              Atomic Origin
 NLMO      Total    Paramagnetic  Diamagnetic   Paramagnetic  Diamagnetic
    1      -0.0927       -0.0530      -0.0397        -1.1091       1.0164
    5       1.0690        1.2049      -0.1360         0.1664       0.9025
   13       1.2344        0.5829       0.6515         0.2074       1.0270
   18      26.4596        0.0194      26.4401         0.4965      25.9630
   19       1.9918        1.8487       0.1431         0.2627       1.7290
 Sum       30.6620        3.6030      27.0591         0.0240      30.6380

 Contributions to Isotropic shielding for atom   21 (    32.5262 ppm):
                         Standard Origin              Atomic Origin
 NLMO      Total    Paramagnetic  Diamagnetic   Paramagnetic  Diamagnetic
    5       1.1911        0.7622       0.4288         0.2031       0.9880
   13       1.3650        0.1248       1.2402         0.3857       0.9793
   18       1.9404        2.0199      -0.0795         0.1595       1.7809
   19      26.5748        0.0968      26.4780         0.4438      26.1310
 Sum       31.0713        3.0037      28.0676         1.1921      29.8792

 Contributions to Isotropic shielding for atom   22 (    32.9128 ppm):
                         Standard Origin              Atomic Origin
 NLMO      Total    Paramagnetic  Diamagnetic   Paramagnetic  Diamagnetic
    1      -0.0723       -0.2252       0.1529        -1.0626       0.9903
    4      -0.1218       -1.1623       1.0405        -1.0106       0.8888
    6       1.0608        1.3322      -0.2714         0.0371       1.0237
    9       1.3716        0.4664       0.9052         0.4536       0.9180
   10      -0.1999        0.2986      -0.4985        -1.3804       1.1806
   20      26.5504        0.1067      26.4438         0.4916      26.0588
   21       2.0109        1.6664       0.3445         0.2985       1.7124
 Sum       30.5998        2.4828      28.1170        -2.1727      32.7725

 Contributions to Isotropic shielding for atom   23 (    32.4786 ppm):
                         Standard Origin              Atomic Origin
 NLMO      Total    Paramagnetic  Diamagnetic   Paramagnetic  Diamagnetic
    6       1.1304        0.9837       0.1467         0.0503       1.0801
    9       1.4680        0.2655       1.2025         0.5256       0.9424
   20       1.8641        1.6864       0.1778         0.0955       1.7686
   21      26.4634        0.1255      26.3379         0.4607      26.0027
 Sum       30.9259        3.0611      27.8648         1.1321      29.7938

 Contributions to Isotropic shielding for atom   24 (    35.3201 ppm):
                         Standard Origin              Atomic Origin
 NLMO      Total    Paramagnetic  Diamagnetic   Paramagnetic  Diamagnetic
    9      -0.1567        0.0771      -0.2338        -1.1517       0.9950
   10       1.4565        2.6824      -1.2259         0.7475       0.7090
   11       0.2154        0.0737       0.1417        -0.8039       1.0192
   22      23.0403       -0.5759      23.6163        -0.1154      23.1558
   43       4.1194        0.5764       3.5430         2.1799       1.9395
   44       5.6467        2.4749       3.1717         2.4827       3.1640
 Sum       34.3216        5.3086      29.0130         3.3392      30.9824

 Contributions to Isotropic shielding for atom   25 (    32.4224 ppm):
                         Standard Origin              Atomic Origin
 NLMO      Total    Paramagnetic  Diamagnetic   Paramagnetic  Diamagnetic
   16       1.6255        0.1913       1.4343         0.5605       1.0651
   23       0.9760        1.6231      -0.6471        -0.1216       1.0976
   24       0.8351        2.1258      -1.2907        -0.1662       1.0013
   25      26.5820       -0.1683      26.7502         0.4444      26.1376
   31       0.2156       -0.5567       0.7724        -0.7856       1.0013
 Sum       30.2343        3.2151      27.0192        -0.0685      30.3028

 Contributions to Isotropic shielding for atom   26 (    32.1485 ppm):
                         Standard Origin              Atomic Origin
 NLMO      Total    Paramagnetic  Diamagnetic   Paramagnetic  Diamagnetic
   23       1.4667       -0.5290       1.9956         0.5572       0.9095
   24      -0.1185        0.0446      -0.1631        -1.0070       0.8885
   26      26.0030        0.3039      25.6991         0.4043      25.5986
   27       2.1151        0.3557       1.7593         0.2978       1.8173
   28       1.9449        1.9968      -0.0518         0.0897       1.8552
   43      -0.6215       -0.0924      -0.5291         0.5971      -1.2186
 Sum       30.7896        2.0796      28.7100         0.9391      29.8506

 Contributions to Isotropic shielding for atom   27 (    32.3536 ppm):
                         Standard Origin              Atomic Origin
 NLMO      Total    Paramagnetic  Diamagnetic   Paramagnetic  Diamagnetic
   12      -0.0647        0.0106      -0.0753        -1.0640       0.9993
   23       1.4707       -0.6193       2.0900         0.4929       0.9778
   26       2.1291        0.3309       1.7982         0.2658       1.8633
   27      26.2828        0.2647      26.0181         0.3712      25.9115
   28       1.9188        1.9383      -0.0195         0.0687       1.8501
 Sum       31.7366        1.9252      29.8114         0.1345      31.6021

 Contributions to Isotropic shielding for atom   28 (    32.5846 ppm):
                         Standard Origin              Atomic Origin
 NLMO      Total    Paramagnetic  Diamagnetic   Paramagnetic  Diamagnetic
   23       1.1346        0.9707       0.1639         0.1202       1.0144
   24      -0.1402        0.5288      -0.6690        -1.0792       0.9390
   26       2.0241        1.6247       0.3994         0.1230       1.9010
   27       2.0466        1.6254       0.4212         0.1660       1.8806
   28      26.4595       -0.0468      26.5063         0.4055      26.0540
 Sum       31.5246        4.7028      26.8218        -0.2645      31.7891

 Contributions to Isotropic shielding for atom   29 (    32.4058 ppm):
                         Standard Origin              Atomic Origin
 NLMO      Total    Paramagnetic  Diamagnetic   Paramagnetic  Diamagnetic
    8      -0.1177        0.1421      -0.2598        -1.1325       1.0148
   10       0.0037        0.0252      -0.0216        -1.1128       1.1165
   23      -0.1340        0.2250      -0.3590        -1.0488       0.9148
   24       1.5712       -1.0927       2.6639         0.6368       0.9345
   29      26.3073        0.3000      26.0073         0.3997      25.9076
   30       2.0254        0.7354       1.2899         0.2207       1.8047
   31       1.9108        1.9820      -0.0711         0.0648       1.8460
 Sum       31.5667        2.3170      29.2497        -1.9722      33.5389

 Contributions to Isotropic shielding for atom   30 (    32.5811 ppm):
                         Standard Origin              Atomic Origin
 NLMO      Total    Paramagnetic  Diamagnetic   Paramagnetic  Diamagnetic
   16      -0.0468        0.1345      -0.1813        -1.0230       0.9762
   24       1.5386       -0.6909       2.2296         0.5267       1.0119
   29       2.0591        0.6534       1.4058         0.2337       1.8255
   30      26.4296        0.2616      26.1680         0.4174      26.0122
   31       1.9178        2.2940      -0.3762         0.0759       1.8419
 Sum       31.8984        2.6525      29.2458         0.2307      31.6677

 Contributions to Isotropic shielding for atom   31 (    32.3691 ppm):
                         Standard Origin              Atomic Origin
 NLMO      Total    Paramagnetic  Diamagnetic   Paramagnetic  Diamagnetic
   23      -0.1519        0.6885      -0.8404        -1.1091       0.9572
   24       1.2336        0.4507       0.7829         0.2069       1.0267
   29       1.9760        1.5900       0.3860         0.1168       1.8593
   30       1.9256        1.9494      -0.0238         0.0852       1.8404
   31      26.3600       -0.0001      26.3602         0.4393      25.9207
 Sum       31.3433        4.6785      26.6648        -0.2610      31.6042
 
 1\1\GINC-COMPUTE-6-2\SP\RHF\STO-3G\C10H20O1\YTSAI.IQUIR\03-Aug-2021\0\
 \# rhf/STO-3G nmr pop=nbo\\comment\\0,1\C,0,2.202056473,1.184320695,-1
 .738939856\C,0,0.740498321,0.900754165,-2.095781932\C,0,0.136069334,-1
 .013233276,-0.464464646\C,0,-0.396024031,1.390744814,0.140942686\C,0,-
 0.859749287,-0.074593804,0.249682468\C,0,-0.21796482,1.811630808,-1.31
 8349671\C,0,0.363110993,-0.580743703,-1.920563444\O,0,1.380809813,-1.0
 50897926,0.220510616\C,0,-1.221345041,-0.454618002,1.716502435\C,0,-0.
 089259129,-0.324421075,2.738344273\C,0,-1.829217263,-1.858810604,1.804
 016652\H,0,2.464645658,2.214050192,-2.005528292\H,0,2.408629645,1.0617
 07916,-0.672874665\H,0,2.872532576,0.519300356,-2.293367553\H,0,0.6341
 66813,1.139909787,-3.162557924\H,0,-0.258593191,-2.035026539,-0.470455
 648\H,0,0.545491398,1.54429002,0.678589516\H,0,-1.137736487,2.04959420
 8,0.608482154\H,0,-1.802949147,-0.142179339,-0.314196603\H,0,0.1271164
 91,2.851550911,-1.361272499\H,0,-1.199218142,1.791579796,-1.810313198\
 H,0,1.135981955,-1.208570554,-2.380745102\H,0,-0.564924771,-0.76280599
 1,-2.478519483\H,0,1.961903974,-1.667892254,-0.255887198\H,0,-2.007705
 449,0.245280552,2.033020241\H,0,0.697535736,-1.066776101,2.579881028\H
 ,0,0.361734143,0.671213412,2.723619546\H,0,-0.477789864,-0.483470229,3
 .751035137\H,0,-1.084525125,-2.636433989,1.606712097\H,0,-2.648737129,
 -1.97653468,1.087479614\H,0,-2.236544448,-2.038919566,2.80499925\\Vers
 ion=EM64L-G09RevC.01\State=1-A\HF=-459.6182926\RMSD=6.783e-09\Dipole=-
 0.1293218,-0.2339345,-0.4363481\Quadrupole=-0.130427,0.903995,-0.77356
 79,-1.229775,-1.0461199,1.1758271\PG=C01 [X(C10H20O1)]\\@


 I am not a vegetarian because I love animals;
 I am a vegetarian because I hate plants.
                               -- A. Whitney Brown
 Job cpu time:  0 days  0 hours  0 minutes 49.3 seconds.
 File lengths (MBytes):  RWF=      5 Int=      0 D2E=      0 Chk=      1 Scr=      1
 Normal termination of Gaussian 09 at Tue Aug  3 16:35:17 2021.
