 Entering Gaussian System, Link 0=g09
 Input=/home/ytsai.iquir/menthol/02_menthol_M0088_MMFF_NMR_rhf_STO-3G_nbo.gjc
 Output=/home/ytsai.iquir/menthol/02_menthol_M0088_MMFF_NMR_rhf_STO-3G_nbo.log
 Initial command:
 /share/apps/Gaussian09/EM64T.SSE4.2-enabled/g09/l1.exe /tmp/Gau-21685.inp -scrdir=/tmp/
 Entering Link 1 = /share/apps/Gaussian09/EM64T.SSE4.2-enabled/g09/l1.exe PID=     21686.
  
 Copyright (c) 1988,1990,1992,1993,1995,1998,2003,2009,2011,
            Gaussian, Inc.  All Rights Reserved.
  
 This is part of the Gaussian(R) 09 program.  It is based on
 the Gaussian(R) 03 system (copyright 2003, Gaussian, Inc.),
 the Gaussian(R) 98 system (copyright 1998, Gaussian, Inc.),
 the Gaussian(R) 94 system (copyright 1995, Gaussian, Inc.),
 the Gaussian 92(TM) system (copyright 1992, Gaussian, Inc.),
 the Gaussian 90(TM) system (copyright 1990, Gaussian, Inc.),
 the Gaussian 88(TM) system (copyright 1988, Gaussian, Inc.),
 the Gaussian 86(TM) system (copyright 1986, Carnegie Mellon
 University), and the Gaussian 82(TM) system (copyright 1983,
 Carnegie Mellon University). Gaussian is a federally registered
 trademark of Gaussian, Inc.
  
 This software contains proprietary and confidential information,
 including trade secrets, belonging to Gaussian, Inc.
  
 This software is provided under written license and may be
 used, copied, transmitted, or stored only in accord with that
 written license.
  
 The following legend is applicable only to US Government
 contracts under FAR:
  
                    RESTRICTED RIGHTS LEGEND
  
 Use, reproduction and disclosure by the US Government is
 subject to restrictions as set forth in subparagraphs (a)
 and (c) of the Commercial Computer Software - Restricted
 Rights clause in FAR 52.227-19.
  
 Gaussian, Inc.
 340 Quinnipiac St., Bldg. 40, Wallingford CT 06492
  
  
 ---------------------------------------------------------------
 Warning -- This program may not be used in any manner that
 competes with the business of Gaussian, Inc. or will provide
 assistance to any competitor of Gaussian, Inc.  The licensee
 of this program is prohibited from giving any competitor of
 Gaussian, Inc. access to this program.  By using this program,
 the user acknowledges that Gaussian, Inc. is engaged in the
 business of creating and licensing software in the field of
 computational chemistry and represents and warrants to the
 licensee that it is not a competitor of Gaussian, Inc. and that
 it will not use this program in any manner prohibited above.
 ---------------------------------------------------------------
  

 Cite this work as:
 Gaussian 09, Revision C.01,
 M. J. Frisch, G. W. Trucks, H. B. Schlegel, G. E. Scuseria, 
 M. A. Robb, J. R. Cheeseman, G. Scalmani, V. Barone, B. Mennucci, 
 G. A. Petersson, H. Nakatsuji, M. Caricato, X. Li, H. P. Hratchian, 
 A. F. Izmaylov, J. Bloino, G. Zheng, J. L. Sonnenberg, M. Hada, 
 M. Ehara, K. Toyota, R. Fukuda, J. Hasegawa, M. Ishida, T. Nakajima, 
 Y. Honda, O. Kitao, H. Nakai, T. Vreven, J. A. Montgomery, Jr., 
 J. E. Peralta, F. Ogliaro, M. Bearpark, J. J. Heyd, E. Brothers, 
 K. N. Kudin, V. N. Staroverov, T. Keith, R. Kobayashi, J. Normand, 
 K. Raghavachari, A. Rendell, J. C. Burant, S. S. Iyengar, J. Tomasi, 
 M. Cossi, N. Rega, J. M. Millam, M. Klene, J. E. Knox, J. B. Cross, 
 V. Bakken, C. Adamo, J. Jaramillo, R. Gomperts, R. E. Stratmann, 
 O. Yazyev, A. J. Austin, R. Cammi, C. Pomelli, J. W. Ochterski, 
 R. L. Martin, K. Morokuma, V. G. Zakrzewski, G. A. Voth, 
 P. Salvador, J. J. Dannenberg, S. Dapprich, A. D. Daniels, 
 O. Farkas, J. B. Foresman, J. V. Ortiz, J. Cioslowski, 
 and D. J. Fox, Gaussian, Inc., Wallingford CT, 2010.
 
 ******************************************
 Gaussian 09:  EM64L-G09RevC.01 23-Sep-2011
                 3-Aug-2021 
 ******************************************
 %nprocshared=4
 Will use up to    4 processors via shared memory.
 ------------------------
 # rhf/STO-3G nmr pop=nbo
 ------------------------
 1/38=1/1;
 2/12=2,17=6,18=5,40=1/2;
 3/6=3,11=1,16=1,25=1,30=1,116=1/1,2,8,3;
 4//1;
 5/5=2,38=5/2;
 8/6=1,10=90,11=11/1;
 10/13=100,45=16/2;
 6/7=2,8=2,9=2,10=2,28=1,64=1/1,7;
 99/9=1/99;
 -------
 comment
 -------
 Charge =  0 Multiplicity = 1
 Symbolic Z-Matrix:
 6                    -1.87902  -0.99113  -2.60487 
 6                    -1.9522   -0.46519  -1.17021 
 6                     0.00458  -1.13028   0.35511 
 6                    -0.94212   1.26823   0.37214 
 6                     0.00069   0.24936   1.05902 
 6                    -1.27065   0.90784  -1.07106 
 6                    -1.3944   -1.48481  -0.15651 
 8                     0.89811  -1.18973  -0.74815 
 6                     1.38978   0.86871   1.39292 
 6                     2.18176   1.40576   0.1969 
 6                     2.26103  -0.08713   2.21386 
 1                    -2.43682  -1.92839  -2.70372 
 1                    -2.31419  -0.2695   -3.30445 
 1                    -0.84497  -1.17876  -2.91168 
 1                    -3.01759  -0.33203  -0.93722 
 1                     0.3155   -1.90294   1.06877 
 1                    -0.53913   2.28583   0.4221 
 1                    -1.8843    1.30263   0.93654 
 1                    -0.46637   0.06639   2.04009 
 1                    -0.35234   0.93212  -1.67026 
 1                    -1.93253   1.67119  -1.49823 
 1                    -1.385    -2.48821  -0.59965 
 1                    -2.07555  -1.53232   0.70338 
 1                     1.78086  -1.40146  -0.40223 
 1                     1.19017   1.73518   2.04 
 1                     3.04992   1.97458   0.54981 
 1                     2.56628   0.61032  -0.44509 
 1                     1.58453   2.0835   -0.41885 
 1                     3.16246   0.42439   2.5688 
 1                     2.58238  -0.95407   1.62929 
 1                     1.71911  -0.45006   3.09348 
 
                          Input orientation:                          
 ---------------------------------------------------------------------
 Center     Atomic      Atomic             Coordinates (Angstroms)
 Number     Number       Type             X           Y           Z
 ---------------------------------------------------------------------
      1          6           0       -1.879023   -0.991132   -2.604874
      2          6           0       -1.952198   -0.465190   -1.170212
      3          6           0        0.004580   -1.130276    0.355108
      4          6           0       -0.942116    1.268228    0.372139
      5          6           0        0.000691    0.249358    1.059023
      6          6           0       -1.270645    0.907839   -1.071064
      7          6           0       -1.394397   -1.484808   -0.156508
      8          8           0        0.898108   -1.189726   -0.748145
      9          6           0        1.389780    0.868705    1.392915
     10          6           0        2.181762    1.405761    0.196905
     11          6           0        2.261031   -0.087125    2.213862
     12          1           0       -2.436822   -1.928391   -2.703719
     13          1           0       -2.314190   -0.269504   -3.304451
     14          1           0       -0.844974   -1.178758   -2.911683
     15          1           0       -3.017587   -0.332032   -0.937225
     16          1           0        0.315497   -1.902939    1.068768
     17          1           0       -0.539132    2.285830    0.422098
     18          1           0       -1.884301    1.302631    0.936539
     19          1           0       -0.466375    0.066385    2.040087
     20          1           0       -0.352335    0.932118   -1.670262
     21          1           0       -1.932530    1.671191   -1.498233
     22          1           0       -1.384999   -2.488215   -0.599653
     23          1           0       -2.075547   -1.532323    0.703378
     24          1           0        1.780865   -1.401463   -0.402233
     25          1           0        1.190169    1.735178    2.039996
     26          1           0        3.049923    1.974578    0.549810
     27          1           0        2.566282    0.610323   -0.445089
     28          1           0        1.584526    2.083496   -0.418849
     29          1           0        3.162462    0.424393    2.568796
     30          1           0        2.582383   -0.954069    1.629294
     31          1           0        1.719114   -0.450064    3.093483
 ---------------------------------------------------------------------
                    Distance matrix (angstroms):
                    1          2          3          4          5
     1  C    0.000000
     2  C    1.529779   0.000000
     3  C    3.511240   2.568642   0.000000
     4  C    3.852934   2.530583   2.578632   0.000000
     5  C    4.300729   3.048580   1.548839   1.548803   0.000000
     6  C    2.515708   1.536084   2.795367   1.523366   2.566547
     7  C    2.544224   1.542193   1.531202   2.839583   2.535964
     8  O    3.346541   2.971084   1.420948   3.268486   2.478342
     9  C    5.488750   4.417885   2.644191   2.576692   1.557127
    10  C    5.484982   4.739102   3.346137   3.131810   2.614878
    11  C    6.416968   5.417212   3.103981   3.935616   2.560471
    12  H    1.095155   2.174272   3.994227   4.681176   4.984203
    13  H    1.095229   2.173547   4.417012   4.214798   4.966669
    14  H    1.094803   2.183540   3.375798   4.096421   4.303623
    15  H    2.124099   1.098667   3.382427   2.929649   3.665109
    16  H    4.375266   3.496083   1.096809   3.481836   2.175219
    17  H    4.657933   3.478551   3.459753   1.095631   2.200978
    18  H    4.219357   2.751036   3.134481   1.098837   2.162772
    19  H    4.968861   3.577187   2.119659   2.110168   1.101870
    20  H    2.627387   2.182219   2.912556   2.152257   2.835451
    21  H    2.883658   2.161507   3.877562   2.154435   3.506923
    22  H    2.550731   2.177126   2.164831   3.905302   3.487928
    23  H    3.357981   2.159705   2.147059   3.039320   2.758918
    24  H    4.291243   3.924558   1.949947   3.891211   2.833637
    25  H    6.198993   5.002152   3.529206   2.747076   2.141221
    26  H    6.560637   5.825131   4.353406   4.057939   3.540268
    27  H    5.195195   4.700978   3.198799   3.661906   2.995815
    28  H    5.121348   4.423659   3.663819   2.770243   2.838433
    29  H    7.361191   6.397756   4.158080   4.731270   3.508112
    30  H    6.150910   5.351510   2.880915   4.352142   2.904924
    31  H    6.760963   5.626532   3.301669   4.176169   2.753398
                    6          7          8          9         10
     6  C    0.000000
     7  C    2.564467   0.000000
     8  O    3.034394   2.385935   0.000000
     9  C    3.626373   3.961234   3.010485   0.000000
    10  C    3.711439   4.611854   3.045889   1.531700   0.000000
    11  C    4.924776   4.575403   3.441914   1.531876   2.510599
    12  H    3.474152   2.787777   3.935944   6.264905   6.392300
    13  H    2.731875   3.497504   4.207181   6.089348   5.939662
    14  H    2.814776   2.826044   2.778372   5.264579   5.050167
    15  H    2.146393   2.138495   4.012987   5.127983   5.598161
    16  H    3.872364   2.144731   2.036979   2.990178   3.897510
    17  H    2.159514   3.909472   3.938860   2.582911   2.868535
    18  H    2.136095   3.033904   4.097781   3.334093   4.134074
    19  H    3.321770   2.844724   3.348712   2.123172   3.493405
    20  H    1.096777   3.036260   2.629854   3.524491   3.183127
    21  H    1.096937   3.471332   4.093897   4.476657   4.457728
    22  H    3.430523   1.096946   2.630723   4.789429   5.340349
    23  H    3.122643   1.098010   3.326698   4.271871   5.197454
    24  H    3.884833   3.185845   0.971466   2.920474   2.898309
    25  H    4.052010   4.676849   4.051431   1.099697   2.118669
    26  H    4.736293   5.676109   4.040769   2.165608   1.096266
    27  H    3.899021   4.489969   2.472816   2.197539   1.092124
    28  H    3.155876   4.655706   3.360594   2.190008   1.093238
    29  H    5.756278   5.642454   4.328368   2.173134   2.747858
    30  H    5.060085   4.391532   2.923104   2.191046   2.789450
    31  H    5.303397   4.618126   3.997407   2.177050   3.471065
                   11         12         13         14         15
    11  C    0.000000
    12  H    7.045756   0.000000
    13  H    7.170613   1.768565   0.000000
    14  H    6.091809   1.771773   1.771894   0.000000
    15  H    6.152490   2.450745   2.470311   3.055435   0.000000
    16  H    2.897157   4.669857   5.358024   4.208934   4.195380
    17  H    4.084390   5.579571   4.854661   4.817780   3.852752
    18  H    4.554860   4.898597   4.543391   4.695349   2.732663
    19  H    2.737244   5.510489   5.664921   5.119937   3.941042
    20  H    4.791133   3.687225   2.821940   2.497923   3.039570
    21  H    5.870032   3.829425   2.678505   3.361969   2.346270
    22  H    5.193710   2.418021   3.619669   2.711418   2.725514
    23  H    4.814153   3.449013   4.208842   3.835099   2.240472
    24  H    2.966816   4.833567   5.145257   3.638951   4.945204
    25  H    2.120793   7.005685   6.697940   6.095240   5.553594
    26  H    2.764424   7.478167   6.976026   6.090622   6.659309
    27  H    2.765797   6.047935   5.724426   4.574009   5.684173
    28  H    3.478566   6.122671   5.391038   4.770639   5.223307
    29  H    1.095539   8.042821   8.060412   6.976051   7.145444
    30  H    1.093882   6.701994   6.984762   5.693658   6.191415
    31  H    1.095049   7.284560   7.565297   6.570203   6.220682
                   16         17         18         19         20
    16  H    0.000000
    17  H    4.323698   0.000000
    18  H    3.890023   1.743792   0.000000
    19  H    2.330885   2.747566   2.180972   0.000000
    20  H    3.998229   2.499079   3.046245   3.811718   0.000000
    21  H    4.941410   2.450920   2.462981   4.152677   1.752951
    22  H    2.453134   4.954894   4.120643   3.786566   3.729782
    23  H    2.447031   4.125286   2.850947   2.632887   3.831069
    24  H    2.136030   4.433739   4.747407   3.628994   3.406471
    25  H    3.865777   2.431315   3.295009   2.351384   4.097589
    26  H    4.773001   3.604789   4.994761   4.269248   4.194139
    27  H    3.697875   3.633584   4.711250   3.958406   3.181655
    28  H    4.440170   2.293044   3.805205   3.784349   2.577428
    29  H    3.971368   4.666375   5.376373   3.684584   5.530027
    30  H    2.520578   4.658125   5.052116   3.241142   4.801807
    31  H    2.860150   4.440844   4.550709   2.480469   5.375370
                   21         22         23         24         25
    21  H    0.000000
    22  H    4.290442   0.000000
    23  H    3.889736   1.757406   0.000000
    24  H    4.942845   3.353013   4.013902   0.000000
    25  H    4.719576   5.606807   4.809159   4.018946   0.000000
    26  H    5.395494   6.395804   6.212276   3.730221   2.395131
    27  H    4.740660   5.023688   5.239893   2.160093   3.055263
    28  H    3.701992   5.454476   5.265897   3.490526   2.514510
    29  H    6.637331   6.261130   5.894511   3.750943   2.426464
    30  H    6.087516   4.802284   4.784142   2.229282   3.055976
    31  H    6.238436   5.237255   4.613388   3.623398   2.482922
                   26         27         28         29         30
    26  H    0.000000
    27  H    1.756396   0.000000
    28  H    1.759986   1.770529   0.000000
    29  H    2.547950   3.077906   3.764111   0.000000
    30  H    3.156082   2.598200   3.797027   1.766157   0.000000
    31  H    3.757688   3.789935   4.332842   1.767264   1.772880
                   31
    31  H    0.000000
 Stoichiometry    C10H20O
 Framework group  C1[X(C10H20O)]
 Deg. of freedom    87
 Full point group                 C1      NOp   1
 Largest Abelian subgroup         C1      NOp   1
 Largest concise Abelian subgroup C1      NOp   1
                         Standard orientation:                         
 ---------------------------------------------------------------------
 Center     Atomic      Atomic             Coordinates (Angstroms)
 Number     Number       Type             X           Y           Z
 ---------------------------------------------------------------------
      1          6           0        3.207293   -0.184338    0.804222
      2          6           0        2.249686    0.191014   -0.328175
      3          6           0        0.015124   -1.075442   -0.355433
      4          6           0        0.112496    1.463965   -0.792784
      5          6           0       -0.759686    0.184288   -0.815489
      6          6           0        1.334600    1.344791    0.108828
      7          6           0        1.465312   -1.032110   -0.844978
      8          8           0        0.038286   -1.229746    1.056922
      9          6           0       -2.159728    0.417627   -0.175115
     10          6           0       -2.153053    0.873210    1.287248
     11          6           0       -3.076424   -0.798188   -0.342759
     12          1           0        3.920371   -0.946691    0.473010
     13          1           0        3.781698    0.689044    1.131008
     14          1           0        2.668497   -0.579047    1.671688
     15          1           0        2.870904    0.548280   -1.160952
     16          1           0       -0.462121   -1.970075   -0.773594
     17          1           0       -0.474804    2.345788   -0.513721
     18          1           0        0.462793    1.661958   -1.815298
     19          1           0       -0.966379    0.015963   -1.884630
     20          1           0        1.008835    1.212777    1.147755
     21          1           0        1.901070    2.283839    0.084938
     22          1           0        1.981676   -1.957063   -0.560158
     23          1           0        1.459338   -1.006107   -1.942664
     24          1           0       -0.781858   -1.680034    1.318359
     25          1           0       -2.624563    1.234194   -0.746499
     26          1           0       -3.162119    1.179478    1.586888
     27          1           0       -1.847567    0.080798    1.973903
     28          1           0       -1.497774    1.733931    1.445160
     29          1           0       -4.097288   -0.555371   -0.027983
     30          1           0       -2.740984   -1.650657    0.255033
     31          1           0       -3.119725   -1.111936   -1.391004
 ---------------------------------------------------------------------
 Rotational constants (GHZ):      1.9176533      0.7378631      0.6861341
 Standard basis: STO-3G (5D, 7F)
 There are    75 symmetry adapted basis functions of A   symmetry.
 Integral buffers will be    131072 words long.
 Raffenetti 1 integral format.
 Two-electron integral symmetry is turned on.
    75 basis functions,   225 primitive gaussians,    75 cartesian basis functions
    44 alpha electrons       44 beta electrons
       nuclear repulsion energy       705.4558370177 Hartrees.
 NAtoms=   31 NActive=   31 NUniq=   31 SFac= 1.00D+00 NAtFMM=   60 NAOKFM=F Big=F
 One-electron integrals computed using PRISM.
 NBasis=    75 RedAO= T  NBF=    75
 NBsUse=    75 1.00D-06 NBFU=    75
 Harris functional with IExCor=  205 diagonalized for initial guess.
 ExpMin= 1.69D-01 ExpMax= 1.31D+02 ExpMxC= 1.31D+02 IAcc=1 IRadAn=         1 AccDes= 0.00D+00
 HarFok:  IExCor=  205 AccDes= 0.00D+00 IRadAn=         1 IDoV= 1
 ScaDFX=  1.000000  1.000000  1.000000  1.000000
 FoFCou: FMM=F IPFlag=           0 FMFlag=      100000 FMFlg1=           0
         NFxFlg=           0 DoJE=T BraDBF=F KetDBF=T FulRan=T
         Omega=  0.000000  0.000000  1.000000  0.000000  0.000000 ICntrl=     500 IOpCl=  0
         NMat0=    1 NMatS0=    1 NMatT0=    0 NMatD0=    1 NMtDS0=    0 NMtDT0=    0
         I1Cent=           4 NGrid=           0.
 Petite list used in FoFCou.
 Initial guess orbital symmetries:
       Occupied  (A) (A) (A) (A) (A) (A) (A) (A) (A) (A) (A) (A)
                 (A) (A) (A) (A) (A) (A) (A) (A) (A) (A) (A) (A)
                 (A) (A) (A) (A) (A) (A) (A) (A) (A) (A) (A) (A)
                 (A) (A) (A) (A) (A) (A) (A) (A)
       Virtual   (A) (A) (A) (A) (A) (A) (A) (A) (A) (A) (A) (A)
                 (A) (A) (A) (A) (A) (A) (A) (A) (A) (A) (A) (A)
                 (A) (A) (A) (A) (A) (A) (A)
 The electronic state of the initial guess is 1-A.
 Requested convergence on RMS density matrix=1.00D-08 within 128 cycles.
 Requested convergence on MAX density matrix=1.00D-06.
 Requested convergence on             energy=1.00D-06.
 No special actions if energy rises.
 Keep R1 ints in memory in canonical form, NReq=4898789.
 SCF Done:  E(RHF) =  -459.606860676     A.U. after   10 cycles
             Convg  =    0.6802D-08             -V/T =  2.0089
 Range of M.O.s used for correlation:     1    75
 NBasis=    75 NAE=    44 NBE=    44 NFC=     0 NFV=     0
 NROrb=     75 NOA=    44 NOB=    44 NVA=    31 NVB=    31
          Differentiating once with respect to magnetic field using GIAOs.
          Electric field/nuclear overlap derivatives assumed to be zero.
          Keep R3 ints in memory in canonical form, NReq=4863575.
 FoFCou: FMM=F IPFlag=           0 FMFlag=           0 FMFlg1=           0
         NFxFlg=           0 DoJE=F BraDBF=F KetDBF=T FulRan=T
         Omega=  0.000000  0.000000  1.000000  0.000000  0.000000 ICntrl=    6100 IOpCl=  0
         NMat0=    1 NMatS0=    1 NMatT0=    0 NMatD0=    1 NMtDS0=    0 NMtDT0=    0
         I1Cent=           7 NGrid=          31.
 Symmetry not used in FoFCou.
          There are     3 degrees of freedom in the 1st order CPHF.  IDoFFX=0.
      3 vectors produced by pass  0 Test12= 4.55D-14 3.33D-08 XBig12= 6.91D+00 4.24D-01.
 AX will form     3 AO Fock derivatives at one time.
      3 vectors produced by pass  1 Test12= 4.55D-14 3.33D-08 XBig12= 9.77D-03 1.27D-02.
      3 vectors produced by pass  2 Test12= 4.55D-14 3.33D-08 XBig12= 8.30D-05 2.45D-03.
      3 vectors produced by pass  3 Test12= 4.55D-14 3.33D-08 XBig12= 2.09D-06 5.07D-04.
      3 vectors produced by pass  4 Test12= 4.55D-14 3.33D-08 XBig12= 2.59D-08 4.75D-05.
      3 vectors produced by pass  5 Test12= 4.55D-14 3.33D-08 XBig12= 3.46D-10 2.71D-06.
      3 vectors produced by pass  6 Test12= 4.55D-14 3.33D-08 XBig12= 3.03D-12 3.08D-07.
 Inverted reduced A of dimension    21 with in-core refinement.
 Calculating GIAO nuclear magnetic shielding tensors.
 SCF GIAO Magnetic shielding tensor (ppm):
      1  C    Isotropic =   220.0382   Anisotropy =    27.7798
   XX=   225.2685   YX=    -5.8676   ZX=    11.7949
   XY=    -4.3576   YY=   213.4027   ZY=    -2.5877
   XZ=    16.4487   YZ=    -0.5311   ZZ=   221.4435
   Eigenvalues:   208.0510   213.5056   238.5581
      2  C    Isotropic =   215.8663   Anisotropy =     8.0962
   XX=   220.1263   YX=    -0.1542   ZX=     3.6118
   XY=    -1.6817   YY=   217.3646   ZY=     2.1009
   XZ=     3.4917   YZ=     2.7238   ZZ=   210.1080
   Eigenvalues:   208.2480   218.0872   221.2638
      3  C    Isotropic =   188.3611   Anisotropy =    39.0760
   XX=   178.9918   YX=    -5.3758   ZX=    -3.9091
   XY=    -6.9011   YY=   172.2877   ZY=    -2.5942
   XZ=    -3.1560   YZ=    -5.1089   ZZ=   213.8039
   Eigenvalues:   168.0726   182.5990   214.4118
      4  C    Isotropic =   217.1803   Anisotropy =    17.1692
   XX=   223.4296   YX=     6.3312   ZX=     3.4038
   XY=     5.9976   YY=   221.1796   ZY=    -1.9334
   XZ=     1.0167   YZ=     0.0333   ZZ=   206.9316
   Eigenvalues:   206.4006   216.5138   228.6264
      5  C    Isotropic =   211.5148   Anisotropy =    16.6498
   XX=   221.4266   YX=     2.9184   ZX=    -4.6810
   XY=    -1.9711   YY=   209.4897   ZY=    -2.9413
   XZ=    -4.4322   YZ=    -2.2661   ZZ=   203.6281
   Eigenvalues:   201.7656   210.1641   222.6146
      6  C    Isotropic =   217.4993   Anisotropy =    16.3937
   XX=   221.4617   YX=    -7.1200   ZX=     4.5788
   XY=    -8.9734   YY=   218.5498   ZY=     0.1233
   XZ=     1.5281   YZ=     1.0867   ZZ=   212.4865
   Eigenvalues:   209.6221   214.4474   228.4285
      7  C    Isotropic =   216.0778   Anisotropy =    13.3307
   XX=   222.2241   YX=     3.8033   ZX=     0.2411
   XY=     3.2820   YY=   218.3967   ZY=     2.8885
   XZ=     3.3238   YZ=     3.8552   ZZ=   207.6127
   Eigenvalues:   206.6077   216.6609   224.9650
      8  O    Isotropic =   366.0206   Anisotropy =    84.4963
   XX=   401.0589   YX=    29.2428   ZX=   -36.6764
   XY=    29.3846   YY=   363.6831   ZY=    -4.4065
   XZ=    -8.0578   YZ=    -3.2923   ZZ=   333.3198
   Eigenvalues:   325.7819   349.9285   422.3514
      9  C    Isotropic =   212.1294   Anisotropy =    18.2364
   XX=   222.6557   YX=     1.7901   ZX=    -3.3737
   XY=     1.7482   YY=   208.0937   ZY=     3.3859
   XZ=    -7.2687   YZ=    -0.4290   ZZ=   205.6389
   Eigenvalues:   203.3332   208.7680   224.2870
     10  C    Isotropic =   223.5759   Anisotropy =    21.0471
   XX=   218.3819   YX=    -1.5860   ZX=    -1.4764
   XY=    -0.5129   YY=   218.2016   ZY=     6.6068
   XZ=    -0.4127   YZ=     9.5515   ZZ=   234.1441
   Eigenvalues:   214.7217   218.3987   237.6073
     11  C    Isotropic =   221.6809   Anisotropy =    25.3367
   XX=   224.4970   YX=    11.4838   ZX=     3.8480
   XY=    13.6940   YY=   225.3240   ZY=     5.8123
   XZ=     0.7493   YZ=     3.5936   ZZ=   215.2217
   Eigenvalues:   211.4021   215.0686   238.5720
     12  H    Isotropic =    32.4306   Anisotropy =    14.1250
   XX=    37.4391   YX=    -6.6172   ZX=     0.5974
   XY=    -6.5394   YY=    32.0302   ZY=     1.2688
   XZ=     0.7777   YZ=     0.7824   ZZ=    27.8223
   Eigenvalues:    26.4835    28.9610    41.8472
     13  H    Isotropic =    32.4198   Anisotropy =    14.1407
   XX=    35.4567   YX=     4.5640   ZX=     5.2581
   XY=     4.6408   YY=    32.4934   ZY=     2.8569
   XZ=     5.5506   YZ=     3.2308   ZZ=    29.3092
   Eigenvalues:    26.1400    29.2724    41.8469
     14  H    Isotropic =    32.1236   Anisotropy =     9.3161
   XX=    31.9391   YX=     0.7583   ZX=     0.1822
   XY=     0.7585   YY=    27.8159   ZY=    -4.2586
   XZ=     0.3835   YZ=    -4.2444   ZZ=    36.6158
   Eigenvalues:    25.9874    32.0490    38.3343
     15  H    Isotropic =    32.4099   Anisotropy =    14.1606
   XX=    34.7134   YX=     2.8815   ZX=    -6.0731
   XY=     3.0760   YY=    28.3649   ZY=    -2.8469
   XZ=    -6.1567   YZ=    -3.0236   ZZ=    34.1514
   Eigenvalues:    27.0652    28.3142    41.8503
     16  H    Isotropic =    31.9013   Anisotropy =    10.2427
   XX=    31.8852   YX=     2.7487   ZX=     0.9628
   XY=     2.7703   YY=    35.7087   ZY=     3.4653
   XZ=     0.9643   YZ=     4.7043   ZZ=    28.1101
   Eigenvalues:    26.3209    30.6533    38.7298
     17  H    Isotropic =    32.4217   Anisotropy =    11.7042
   XX=    32.7948   YX=    -3.4176   ZX=    -0.9062
   XY=    -3.6071   YY=    38.5192   ZY=     0.0759
   XZ=    -1.4578   YZ=     0.3956   ZZ=    25.9511
   Eigenvalues:    25.7417    31.2990    40.2245
     18  H    Isotropic =    32.3639   Anisotropy =    13.7713
   XX=    29.3492   YX=     1.8764   ZX=    -2.1393
   XY=     1.8759   YY=    29.8872   ZY=    -5.6967
   XZ=    -1.9569   YZ=    -6.0075   ZZ=    37.8553
   Eigenvalues:    26.5754    28.9715    41.5447
     19  H    Isotropic =    32.4904   Anisotropy =    11.9522
   XX=    30.8860   YX=     1.0458   ZX=     2.1157
   XY=     1.4374   YY=    26.8821   ZY=     1.4337
   XZ=     2.5572   YZ=     1.1123   ZZ=    39.7031
   Eigenvalues:    26.4994    30.5133    40.4585
     20  H    Isotropic =    32.4134   Anisotropy =     7.9515
   XX=    31.9393   YX=    -0.0706   ZX=    -1.1824
   XY=     0.0098   YY=    28.1911   ZY=     1.7546
   XZ=    -0.9992   YZ=     2.1295   ZZ=    37.1100
   Eigenvalues:    27.7774    31.7485    37.7144
     21  H    Isotropic =    32.4044   Anisotropy =    14.8635
   XX=    32.4725   YX=     5.2123   ZX=     1.5492
   XY=     5.3377   YY=    39.2865   ZY=     1.2353
   XZ=     1.3732   YZ=     0.8410   ZZ=    25.4541
   Eigenvalues:    25.1620    29.7377    42.3133
     22  H    Isotropic =    32.0743   Anisotropy =    12.9643
   XX=    32.7451   YX=    -4.6988   ZX=     0.8503
   XY=    -5.2980   YY=    37.5815   ZY=     0.4142
   XZ=     0.7074   YZ=     0.2315   ZZ=    25.8965
   Eigenvalues:    25.7177    29.7882    40.7172
     23  H    Isotropic =    32.4040   Anisotropy =    13.2710
   XX=    29.6000   YX=    -0.2499   ZX=    -1.7707
   XY=    -0.2880   YY=    27.6956   ZY=     3.4204
   XZ=    -2.5366   YZ=     3.6060   ZZ=    39.9164
   Eigenvalues:    26.7234    29.2374    41.2513
     24  H    Isotropic =    34.9026   Anisotropy =    17.5133
   XX=    39.1745   YX=     6.0988   ZX=    -5.0572
   XY=     5.7849   YY=    31.3628   ZY=    -6.9265
   XZ=    -3.9471   YZ=    -5.9486   ZZ=    34.1704
   Eigenvalues:    25.8344    32.2952    46.5781
     25  H    Isotropic =    32.4066   Anisotropy =    12.7236
   XX=    33.1992   YX=    -4.6226   ZX=     3.0019
   XY=    -4.1577   YY=    33.8608   ZY=    -5.0639
   XZ=     2.8747   YZ=    -4.7627   ZZ=    30.1599
   Eigenvalues:    26.7584    29.5725    40.8890
     26  H    Isotropic =    32.6297   Anisotropy =    14.9644
   XX=    37.4261   YX=    -4.1690   ZX=    -5.2505
   XY=    -3.8742   YY=    29.0968   ZY=     3.5640
   XZ=    -5.4161   YZ=     3.6086   ZZ=    31.3662
   Eigenvalues:    26.4683    28.8149    42.6060
     27  H    Isotropic =    32.8087   Anisotropy =     8.8470
   XX=    29.9742   YX=    -3.1566   ZX=    -0.0447
   XY=    -2.4134   YY=    31.6747   ZY=    -3.5844
   XZ=    -0.1741   YZ=    -3.3690   ZZ=    36.7773
   Eigenvalues:    27.3497    32.3698    38.7067
     28  H    Isotropic =    32.3419   Anisotropy =     9.8515
   XX=    32.0144   YX=     3.7595   ZX=    -1.1531
   XY=     3.9695   YY=    34.5403   ZY=     4.5744
   XZ=    -1.0047   YZ=     5.1722   ZZ=    30.4711
   Eigenvalues:    25.6351    32.4811    38.9096
     29  H    Isotropic =    32.4576   Anisotropy =    14.5236
   XX=    41.8024   YX=     0.7258   ZX=    -1.9537
   XY=     1.1745   YY=    28.1112   ZY=     1.0133
   XZ=    -2.1859   YZ=     1.1383   ZZ=    27.4590
   Eigenvalues:    26.3381    28.8947    42.1400
     30  H    Isotropic =    33.1621   Anisotropy =     9.3361
   XX=    32.5241   YX=     0.8795   ZX=     0.7977
   XY=     1.2567   YY=    37.5513   ZY=    -4.0706
   XZ=     0.6521   YZ=    -4.2833   ZZ=    29.4108
   Eigenvalues:    27.4174    32.6827    39.3861
     31  H    Isotropic =    32.5413   Anisotropy =    12.7340
   XX=    31.3983   YX=     2.9771   ZX=     3.2199
   XY=     3.0595   YY=    29.5654   ZY=     5.2567
   XZ=     2.9919   YZ=     4.7029   ZZ=    36.6603
   Eigenvalues:    26.5450    30.0483    41.0306
 End of Minotr Frequency-dependent properties file   721 does not exist.
 End of Minotr Frequency-dependent properties file   722 does not exist.

 **********************************************************************

            Population analysis using the SCF density.

 **********************************************************************

 Orbital symmetries:
       Occupied  (A) (A) (A) (A) (A) (A) (A) (A) (A) (A) (A) (A)
                 (A) (A) (A) (A) (A) (A) (A) (A) (A) (A) (A) (A)
                 (A) (A) (A) (A) (A) (A) (A) (A) (A) (A) (A) (A)
                 (A) (A) (A) (A) (A) (A) (A) (A)
       Virtual   (A) (A) (A) (A) (A) (A) (A) (A) (A) (A) (A) (A)
                 (A) (A) (A) (A) (A) (A) (A) (A) (A) (A) (A) (A)
                 (A) (A) (A) (A) (A) (A) (A)
 The electronic state is 1-A.
 Alpha  occ. eigenvalues --  -20.23746 -11.08626 -11.04950 -11.03902 -11.03814
 Alpha  occ. eigenvalues --  -11.03683 -11.03405 -11.03056 -11.02876 -11.02695
 Alpha  occ. eigenvalues --  -11.02029  -1.28060  -1.07385  -1.03488  -0.96434
 Alpha  occ. eigenvalues --   -0.94943  -0.89180  -0.87317  -0.79266  -0.78272
 Alpha  occ. eigenvalues --   -0.72901  -0.66794  -0.64790  -0.60652  -0.59568
 Alpha  occ. eigenvalues --   -0.56447  -0.56094  -0.54054  -0.53995  -0.51402
 Alpha  occ. eigenvalues --   -0.50238  -0.50066  -0.48774  -0.47622  -0.46691
 Alpha  occ. eigenvalues --   -0.45437  -0.44405  -0.42609  -0.41832  -0.40795
 Alpha  occ. eigenvalues --   -0.39642  -0.38338  -0.35966  -0.32499
 Alpha virt. eigenvalues --    0.51786   0.56499   0.57338   0.59468   0.60452
 Alpha virt. eigenvalues --    0.61087   0.62225   0.65307   0.65473   0.66208
 Alpha virt. eigenvalues --    0.68079   0.68699   0.71194   0.71433   0.72228
 Alpha virt. eigenvalues --    0.72788   0.74541   0.74770   0.75994   0.76127
 Alpha virt. eigenvalues --    0.77387   0.78074   0.79141   0.79825   0.80315
 Alpha virt. eigenvalues --    0.81287   0.82331   0.83182   0.86370   0.87005
 Alpha virt. eigenvalues --    0.87457
          Condensed to atoms (all electrons):
              1          2          3          4          5          6
     1  C    4.741099   0.365429   0.000328   0.000747   0.000009  -0.024490
     2  C    0.365429   4.742718  -0.020487  -0.022232  -0.003253   0.363359
     3  C    0.000328  -0.020487   4.738258  -0.020830   0.352910  -0.007656
     4  C    0.000747  -0.022232  -0.020830   4.758919   0.357962   0.363334
     5  C    0.000009  -0.003253   0.352910   0.357962   4.797239  -0.020739
     6  C   -0.024490   0.363359  -0.007656   0.363334  -0.020739   4.754372
     7  C   -0.023528   0.359131   0.359297  -0.006023  -0.023794  -0.021510
     8  O   -0.000184  -0.000249   0.266248   0.000055  -0.017855  -0.000343
     9  C    0.000000   0.000003  -0.017900  -0.021270   0.357878   0.000352
    10  C    0.000000   0.000002  -0.000514  -0.002092  -0.019446  -0.000119
    11  C    0.000000   0.000000  -0.001719   0.000628  -0.022312  -0.000005
    12  H    0.382181  -0.020357   0.000010  -0.000018  -0.000001   0.001293
    13  H    0.381892  -0.020240  -0.000017   0.000015   0.000000  -0.002227
    14  H    0.382713  -0.020264   0.000059   0.000011   0.000007  -0.002253
    15  H   -0.025535   0.382954   0.001216  -0.000573   0.000030  -0.024183
    16  H   -0.000015   0.001170   0.378046   0.001139  -0.025334   0.000052
    17  H   -0.000016   0.001262   0.000894   0.382705  -0.020135  -0.021119
    18  H    0.000008  -0.002499   0.000734   0.382216  -0.022650  -0.024286
    19  H    0.000000   0.000076  -0.023949  -0.025868   0.378963   0.001283
    20  H   -0.004295  -0.021447   0.000051  -0.023018  -0.001818   0.382020
    21  H   -0.000517  -0.021621   0.000053  -0.021453   0.001192   0.382491
    22  H   -0.005985  -0.021191  -0.021124   0.000038   0.001155   0.001031
    23  H    0.001271  -0.021950  -0.021648   0.000003  -0.001729   0.000591
    24  H    0.000012  -0.000004  -0.041187  -0.000013   0.000299   0.000019
    25  H    0.000000  -0.000001   0.001070  -0.002284  -0.023702   0.000013
    26  H    0.000000   0.000000  -0.000006   0.000020   0.001102   0.000003
    27  H    0.000000   0.000000   0.000151   0.000036  -0.000882  -0.000010
    28  H    0.000000   0.000001   0.000004  -0.000662  -0.001966  -0.000343
    29  H    0.000000   0.000000   0.000012  -0.000013   0.001165   0.000000
    30  H    0.000000   0.000000  -0.000223  -0.000003  -0.001346   0.000000
    31  H    0.000000   0.000000  -0.000083   0.000015  -0.002356   0.000000
              7          8          9         10         11         12
     1  C   -0.023528  -0.000184   0.000000   0.000000   0.000000   0.382181
     2  C    0.359131  -0.000249   0.000003   0.000002   0.000000  -0.020357
     3  C    0.359297   0.266248  -0.017900  -0.000514  -0.001719   0.000010
     4  C   -0.006023   0.000055  -0.021270  -0.002092   0.000628  -0.000018
     5  C   -0.023794  -0.017855   0.357878  -0.019446  -0.022312  -0.000001
     6  C   -0.021510  -0.000343   0.000352  -0.000119  -0.000005   0.001293
     7  C    4.767098  -0.020593   0.000533  -0.000005   0.000004  -0.002337
     8  O   -0.020593   7.849657  -0.000549  -0.000908  -0.000114   0.000005
     9  C    0.000533  -0.000549   4.740820   0.364080   0.363543   0.000000
    10  C   -0.000005  -0.000908   0.364080   4.743103  -0.025736   0.000000
    11  C    0.000004  -0.000114   0.363543  -0.025736   4.744366   0.000000
    12  H   -0.002337   0.000005   0.000000   0.000000   0.000000   0.635901
    13  H    0.001270   0.000003   0.000000   0.000000   0.000000  -0.021954
    14  H   -0.001867   0.000175   0.000000   0.000000   0.000000  -0.021698
    15  H   -0.025212  -0.000005   0.000000   0.000000   0.000000  -0.002610
    16  H   -0.023488  -0.017333  -0.000420   0.000006  -0.000231  -0.000001
    17  H    0.000040  -0.000012  -0.005368  -0.000704   0.000041   0.000000
    18  H   -0.000048  -0.000007   0.001188   0.000018  -0.000016   0.000000
    19  H   -0.000688   0.000595  -0.024575   0.001200  -0.002280   0.000000
    20  H   -0.000253  -0.000036   0.000090  -0.000174  -0.000002   0.000051
    21  H    0.001168   0.000006  -0.000011   0.000003   0.000000  -0.000013
    22  H    0.382555  -0.000792  -0.000012   0.000000   0.000000   0.000052
    23  H    0.381063   0.000643   0.000013   0.000000   0.000000   0.000058
    24  H    0.002719   0.259575   0.000134  -0.001043  -0.000460   0.000000
    25  H   -0.000014  -0.000010   0.382190  -0.025596  -0.024795   0.000000
    26  H    0.000000   0.000015  -0.020423   0.381512  -0.001947   0.000000
    27  H   -0.000003  -0.000675  -0.020131   0.382650  -0.002547   0.000000
    28  H   -0.000001   0.000019  -0.019295   0.383169   0.001287   0.000000
    29  H    0.000000   0.000001  -0.019789  -0.002062   0.382722   0.000000
    30  H    0.000001  -0.000364  -0.020586  -0.002316   0.381466   0.000000
    31  H   -0.000001   0.000007  -0.020151   0.001305   0.382339   0.000000
             13         14         15         16         17         18
     1  C    0.381892   0.382713  -0.025535  -0.000015  -0.000016   0.000008
     2  C   -0.020240  -0.020264   0.382954   0.001170   0.001262  -0.002499
     3  C   -0.000017   0.000059   0.001216   0.378046   0.000894   0.000734
     4  C    0.000015   0.000011  -0.000573   0.001139   0.382705   0.382216
     5  C    0.000000   0.000007   0.000030  -0.025334  -0.020135  -0.022650
     6  C   -0.002227  -0.002253  -0.024183   0.000052  -0.021119  -0.024286
     7  C    0.001270  -0.001867  -0.025212  -0.023488   0.000040  -0.000048
     8  O    0.000003   0.000175  -0.000005  -0.017333  -0.000012  -0.000007
     9  C    0.000000   0.000000   0.000000  -0.000420  -0.005368   0.001188
    10  C    0.000000   0.000000   0.000000   0.000006  -0.000704   0.000018
    11  C    0.000000   0.000000   0.000000  -0.000231   0.000041  -0.000016
    12  H   -0.021954  -0.021698  -0.002610  -0.000001   0.000000   0.000000
    13  H    0.634649  -0.021575  -0.002304   0.000001  -0.000001   0.000000
    14  H   -0.021575   0.619423   0.001939  -0.000005   0.000000   0.000000
    15  H   -0.002304   0.001939   0.659553  -0.000034  -0.000014   0.000369
    16  H    0.000001  -0.000005  -0.000034   0.662758  -0.000025  -0.000030
    17  H   -0.000001   0.000000  -0.000014  -0.000025   0.640488  -0.024679
    18  H    0.000000   0.000000   0.000369  -0.000030  -0.024679   0.654140
    19  H    0.000000   0.000000   0.000001  -0.004227   0.001085  -0.008543
    20  H   -0.000066   0.000323   0.001876   0.000002  -0.002261   0.002060
    21  H    0.000162   0.000013  -0.004893   0.000001  -0.002320  -0.002483
    22  H    0.000088   0.000055   0.000910  -0.002376   0.000001   0.000003
    23  H   -0.000038   0.000002  -0.007199  -0.002236   0.000004  -0.000186
    24  H    0.000000  -0.000005   0.000001  -0.008022   0.000001   0.000000
    25  H    0.000000   0.000000   0.000000  -0.000015  -0.000014   0.000063
    26  H    0.000000   0.000000   0.000000   0.000000  -0.000032   0.000000
    27  H    0.000000   0.000000   0.000000   0.000019   0.000026  -0.000002
    28  H    0.000000   0.000000   0.000000   0.000000  -0.000391   0.000008
    29  H    0.000000   0.000000   0.000000   0.000007  -0.000003   0.000000
    30  H    0.000000   0.000000   0.000000  -0.000534   0.000000   0.000000
    31  H    0.000000   0.000000   0.000000  -0.000053   0.000002  -0.000001
             19         20         21         22         23         24
     1  C    0.000000  -0.004295  -0.000517  -0.005985   0.001271   0.000012
     2  C    0.000076  -0.021447  -0.021621  -0.021191  -0.021950  -0.000004
     3  C   -0.023949   0.000051   0.000053  -0.021124  -0.021648  -0.041187
     4  C   -0.025868  -0.023018  -0.021453   0.000038   0.000003  -0.000013
     5  C    0.378963  -0.001818   0.001192   0.001155  -0.001729   0.000299
     6  C    0.001283   0.382020   0.382491   0.001031   0.000591   0.000019
     7  C   -0.000688  -0.000253   0.001168   0.382555   0.381063   0.002719
     8  O    0.000595  -0.000036   0.000006  -0.000792   0.000643   0.259575
     9  C   -0.024575   0.000090  -0.000011  -0.000012   0.000013   0.000134
    10  C    0.001200  -0.000174   0.000003   0.000000   0.000000  -0.001043
    11  C   -0.002280  -0.000002   0.000000   0.000000   0.000000  -0.000460
    12  H    0.000000   0.000051  -0.000013   0.000052   0.000058   0.000000
    13  H    0.000000  -0.000066   0.000162   0.000088  -0.000038   0.000000
    14  H    0.000000   0.000323   0.000013   0.000055   0.000002  -0.000005
    15  H    0.000001   0.001876  -0.004893   0.000910  -0.007199   0.000001
    16  H   -0.004227   0.000002   0.000001  -0.002376  -0.002236  -0.008022
    17  H    0.001085  -0.002261  -0.002320   0.000001   0.000004   0.000001
    18  H   -0.008543   0.002060  -0.002483   0.000003  -0.000186   0.000000
    19  H    0.666723  -0.000001  -0.000039   0.000002   0.000006  -0.000058
    20  H   -0.000001   0.632581  -0.023948  -0.000009  -0.000020   0.000032
    21  H   -0.000039  -0.023948   0.644636  -0.000025  -0.000029  -0.000001
    22  H    0.000002  -0.000009  -0.000025   0.630677  -0.023023   0.000067
    23  H    0.000006  -0.000020  -0.000029  -0.023023   0.644962  -0.000088
    24  H   -0.000058   0.000032  -0.000001   0.000067  -0.000088   0.609828
    25  H   -0.003756   0.000004  -0.000001   0.000000   0.000000   0.000003
    26  H   -0.000033   0.000003   0.000000   0.000000   0.000000   0.000020
    27  H   -0.000009  -0.000027   0.000000   0.000000   0.000000  -0.001057
    28  H    0.000022  -0.000138   0.000014   0.000000   0.000000   0.000003
    29  H    0.000015   0.000000   0.000000   0.000000   0.000000  -0.000001
    30  H    0.000024   0.000000   0.000000   0.000001   0.000000  -0.000058
    31  H    0.000244   0.000000   0.000000   0.000000   0.000000  -0.000001
             25         26         27         28         29         30
     1  C    0.000000   0.000000   0.000000   0.000000   0.000000   0.000000
     2  C   -0.000001   0.000000   0.000000   0.000001   0.000000   0.000000
     3  C    0.001070  -0.000006   0.000151   0.000004   0.000012  -0.000223
     4  C   -0.002284   0.000020   0.000036  -0.000662  -0.000013  -0.000003
     5  C   -0.023702   0.001102  -0.000882  -0.001966   0.001165  -0.001346
     6  C    0.000013   0.000003  -0.000010  -0.000343   0.000000   0.000000
     7  C   -0.000014   0.000000  -0.000003  -0.000001   0.000000   0.000001
     8  O   -0.000010   0.000015  -0.000675   0.000019   0.000001  -0.000364
     9  C    0.382190  -0.020423  -0.020131  -0.019295  -0.019789  -0.020586
    10  C   -0.025596   0.381512   0.382650   0.383169  -0.002062  -0.002316
    11  C   -0.024795  -0.001947  -0.002547   0.001287   0.382722   0.381466
    12  H    0.000000   0.000000   0.000000   0.000000   0.000000   0.000000
    13  H    0.000000   0.000000   0.000000   0.000000   0.000000   0.000000
    14  H    0.000000   0.000000   0.000000   0.000000   0.000000   0.000000
    15  H    0.000000   0.000000   0.000000   0.000000   0.000000   0.000000
    16  H   -0.000015   0.000000   0.000019   0.000000   0.000007  -0.000534
    17  H   -0.000014  -0.000032   0.000026  -0.000391  -0.000003   0.000000
    18  H    0.000063   0.000000  -0.000002   0.000008   0.000000   0.000000
    19  H   -0.003756  -0.000033  -0.000009   0.000022   0.000015   0.000024
    20  H    0.000004   0.000003  -0.000027  -0.000138   0.000000   0.000000
    21  H   -0.000001   0.000000   0.000000   0.000014   0.000000   0.000000
    22  H    0.000000   0.000000   0.000000   0.000000   0.000000   0.000001
    23  H    0.000000   0.000000   0.000000   0.000000   0.000000   0.000000
    24  H    0.000003   0.000020  -0.001057   0.000003  -0.000001  -0.000058
    25  H    0.654293  -0.003511   0.001943  -0.001719  -0.002999   0.001955
    26  H   -0.003511   0.635737  -0.022635  -0.021936   0.000140  -0.000009
    27  H    0.001943  -0.022635   0.628403  -0.021434  -0.000026   0.000370
    28  H   -0.001719  -0.021936  -0.021434   0.624761   0.000023   0.000011
    29  H   -0.002999   0.000140  -0.000026   0.000023   0.627843  -0.022160
    30  H    0.001955  -0.000009   0.000370   0.000011  -0.022160   0.641720
    31  H   -0.002083   0.000019   0.000017  -0.000036  -0.021520  -0.021957
             31
     1  C    0.000000
     2  C    0.000000
     3  C   -0.000083
     4  C    0.000015
     5  C   -0.002356
     6  C    0.000000
     7  C   -0.000001
     8  O    0.000007
     9  C   -0.020151
    10  C    0.001305
    11  C    0.382339
    12  H    0.000000
    13  H    0.000000
    14  H    0.000000
    15  H    0.000000
    16  H   -0.000053
    17  H    0.000002
    18  H   -0.000001
    19  H    0.000244
    20  H    0.000000
    21  H    0.000000
    22  H    0.000000
    23  H    0.000000
    24  H   -0.000001
    25  H   -0.002083
    26  H    0.000019
    27  H    0.000017
    28  H   -0.000036
    29  H   -0.021520
    30  H   -0.021957
    31  H    0.629773
 Mulliken atomic charges:
              1
     1  C   -0.171124
     2  C   -0.020310
     3  C    0.077999
     4  C   -0.101489
     5  C   -0.040593
     6  C   -0.100929
     7  C   -0.105513
     8  O   -0.316974
     9  C   -0.020344
    10  C   -0.176333
    11  C   -0.174232
    12  H    0.049438
    13  H    0.050345
    14  H    0.062946
    15  H    0.043713
    16  H    0.041177
    17  H    0.050545
    18  H    0.044619
    19  H    0.043786
    20  H    0.058419
    21  H    0.047615
    22  H    0.057902
    23  H    0.049533
    24  H    0.179286
    25  H    0.048965
    26  H    0.051961
    27  H    0.055823
    28  H    0.058598
    29  H    0.056642
    30  H    0.044011
    31  H    0.054519
 Sum of Mulliken atomic charges =   0.00000
 Mulliken charges with hydrogens summed into heavy atoms:
              1
     1  C   -0.008395
     2  C    0.023403
     3  C    0.119176
     4  C   -0.006326
     5  C    0.003193
     6  C    0.005104
     7  C    0.001923
     8  O   -0.137689
     9  C    0.028621
    10  C   -0.009951
    11  C   -0.019060
 Sum of Mulliken charges with hydrogens summed into heavy atoms =   0.00000
 Electronic spatial extent (au):  <R**2>=           1981.5944
 Charge=              0.0000 electrons
 Dipole moment (field-independent basis, Debye):
    X=             -1.0615    Y=             -0.3207    Z=             -0.8705  Tot=              1.4098
 Quadrupole moment (field-independent basis, Debye-Ang):
   XX=            -67.1669   YY=            -66.2358   ZZ=            -68.1573
   XY=              1.4743   XZ=             -1.6995   YZ=              0.1514
 Traceless Quadrupole moment (field-independent basis, Debye-Ang):
   XX=              0.0198   YY=              0.9508   ZZ=             -0.9706
   XY=              1.4743   XZ=             -1.6995   YZ=              0.1514
 Octapole moment (field-independent basis, Debye-Ang**2):
  XXX=             -3.3967  YYY=             -9.8704  ZZZ=              3.7851  XYY=             -1.8807
  XXY=             -1.5740  XXZ=              2.0201  XZZ=             -1.9739  YZZ=             -3.2570
  YYZ=              3.5905  XYZ=              2.7698
 Hexadecapole moment (field-independent basis, Debye-Ang**3):
 XXXX=          -1693.8435 YYYY=           -487.2412 ZZZZ=           -358.2540 XXXY=             -7.4044
 XXXZ=             -9.5174 YYYX=              3.7689 YYYZ=            -10.3765 ZZZX=             -1.6948
 ZZZY=            -10.1856 XXYY=           -360.4450 XXZZ=           -344.0992 YYZZ=           -142.5979
 XXYZ=             -3.3477 YYXZ=             -3.7467 ZZXY=              5.9069
 N-N= 7.054558370177D+02 E-N=-2.483100110053D+03  KE= 4.555494383090D+02
 ******************************Gaussian NBO Version 3.1******************************
             N A T U R A L   A T O M I C   O R B I T A L   A N D
          N A T U R A L   B O N D   O R B I T A L   A N A L Y S I S
 ******************************Gaussian NBO Version 3.1******************************
       /RESON  / : Allow strongly delocalized NBO set
       /NLMO   / : Form Natural Localized Molecular Orbitals
       /NMR /    : Analyze NMR Sheilding Tensor 

 Analyzing the SCF density

 Job title: comment                                                         

 Storage needed:     19864 in NPA,     23691 in NBO,     45933 in NLMO (  33549317 available)


 NATURAL POPULATIONS:  Natural atomic orbital occupancies 
                                                          
   NAO  Atom  No  lang   Type(AO)    Occupancy      Energy
 ----------------------------------------------------------
     1    C    1  S      Cor( 1S)     1.99997     -10.95388
     2    C    1  S      Val( 2S)     1.08100      -0.17121
     3    C    1  px     Val( 2p)     1.01154       0.09706
     4    C    1  py     Val( 2p)     1.02281       0.09659
     5    C    1  pz     Val( 2p)     1.01119       0.09680

     6    C    2  S      Cor( 1S)     1.99996     -10.98144
     7    C    2  S      Val( 2S)     1.08137      -0.18492
     8    C    2  px     Val( 2p)     0.96695       0.11473
     9    C    2  py     Val( 2p)     0.95626       0.11932
    10    C    2  pz     Val( 2p)     0.97693       0.11585

    11    C    3  S      Cor( 1S)     1.99989     -11.03545
    12    C    3  S      Val( 2S)     1.08766      -0.21680
    13    C    3  px     Val( 2p)     0.97914       0.08154
    14    C    3  py     Val( 2p)     0.97781       0.08799
    15    C    3  pz     Val( 2p)     0.80981       0.13268

    16    C    4  S      Cor( 1S)     1.99996     -10.96927
    17    C    4  S      Val( 2S)     1.08550      -0.18451
    18    C    4  px     Val( 2p)     0.98779       0.10174
    19    C    4  py     Val( 2p)     0.98484       0.10407
    20    C    4  pz     Val( 2p)     1.00596       0.09796

    21    C    5  S      Cor( 1S)     1.99995     -10.98534
    22    C    5  S      Val( 2S)     1.10566      -0.21166
    23    C    5  px     Val( 2p)     0.95629       0.11070
    24    C    5  py     Val( 2p)     0.96226       0.10899
    25    C    5  pz     Val( 2p)     0.99632       0.09512

    26    C    6  S      Cor( 1S)     1.99996     -10.96490
    27    C    6  S      Val( 2S)     1.08291      -0.17796
    28    C    6  px     Val( 2p)     0.98086       0.10820
    29    C    6  py     Val( 2p)     0.99496       0.10364
    30    C    6  pz     Val( 2p)     1.00592       0.10382

    31    C    7  S      Cor( 1S)     1.99995     -10.97304
    32    C    7  S      Val( 2S)     1.09217      -0.19377
    33    C    7  px     Val( 2p)     0.97927       0.09672
    34    C    7  py     Val( 2p)     1.00137       0.09365
    35    C    7  pz     Val( 2p)     1.00864       0.09388

    36    O    8  S      Cor( 1S)     1.99999     -20.14048
    37    O    8  S      Val( 2S)     1.74675      -0.99809
    38    O    8  px     Val( 2p)     1.50000      -0.18733
    39    O    8  py     Val( 2p)     1.82452      -0.31081
    40    O    8  pz     Val( 2p)     1.26704      -0.07871

    41    C    9  S      Cor( 1S)     1.99996     -10.99359
    42    C    9  S      Val( 2S)     1.08565      -0.19902
    43    C    9  px     Val( 2p)     0.95767       0.10628
    44    C    9  py     Val( 2p)     0.97249       0.10386
    45    C    9  pz     Val( 2p)     0.96349       0.10969

    46    C   10  S      Cor( 1S)     1.99997     -10.96226
    47    C   10  S      Val( 2S)     1.07956      -0.17861
    48    C   10  px     Val( 2p)     1.03072       0.08435
    49    C   10  py     Val( 2p)     1.03018       0.08445
    50    C   10  pz     Val( 2p)     0.99263       0.09275

    51    C   11  S      Cor( 1S)     1.99997     -10.97048
    52    C   11  S      Val( 2S)     1.08044      -0.18771
    53    C   11  px     Val( 2p)     1.01890       0.07606
    54    C   11  py     Val( 2p)     1.00388       0.08292
    55    C   11  pz     Val( 2p)     1.02647       0.07888

    56    H   12  S      Val( 1S)     0.96758       0.08172

    57    H   13  S      Val( 1S)     0.96673       0.08189

    58    H   14  S      Val( 1S)     0.95552       0.09462

    59    H   15  S      Val( 1S)     0.98068       0.07125

    60    H   16  S      Val( 1S)     0.99355       0.04431

    61    H   17  S      Val( 1S)     0.97025       0.07590

    62    H   18  S      Val( 1S)     0.97602       0.07205

    63    H   19  S      Val( 1S)     0.98069       0.06280

    64    H   20  S      Val( 1S)     0.96339       0.08942

    65    H   21  S      Val( 1S)     0.97257       0.07648

    66    H   22  S      Val( 1S)     0.96325       0.07753

    67    H   23  S      Val( 1S)     0.97062       0.06822

    68    H   24  S      Val( 1S)     0.80793       0.08124

    69    H   25  S      Val( 1S)     0.97611       0.06447

    70    H   26  S      Val( 1S)     0.96483       0.07446

    71    H   27  S      Val( 1S)     0.96195       0.08153

    72    H   28  S      Val( 1S)     0.95901       0.08293

    73    H   29  S      Val( 1S)     0.96073       0.07100

    74    H   30  S      Val( 1S)     0.97263       0.06272

    75    H   31  S      Val( 1S)     0.96289       0.06974


 Summary of Natural Population Analysis:                  
                                                          
                                       Natural Population 
                Natural  -----------------------------------------------
    Atom  No    Charge         Core      Valence    Rydberg      Total
 -----------------------------------------------------------------------
      C    1   -0.12651      1.99997     4.12654    0.00000     6.12651
      C    2    0.01852      1.99996     3.98151    0.00000     5.98148
      C    3    0.14569      1.99989     3.85442    0.00000     5.85431
      C    4   -0.06405      1.99996     4.06410    0.00000     6.06405
      C    5   -0.02047      1.99995     4.02052    0.00000     6.02047
      C    6   -0.06461      1.99996     4.06464    0.00000     6.06461
      C    7   -0.08140      1.99995     4.08145    0.00000     6.08140
      O    8   -0.33830      1.99999     6.33831    0.00000     8.33830
      C    9    0.02074      1.99996     3.97930    0.00000     5.97926
      C   10   -0.13306      1.99997     4.13309    0.00000     6.13306
      C   11   -0.12965      1.99997     4.12968    0.00000     6.12965
      H   12    0.03242      0.00000     0.96758    0.00000     0.96758
      H   13    0.03327      0.00000     0.96673    0.00000     0.96673
      H   14    0.04448      0.00000     0.95552    0.00000     0.95552
      H   15    0.01932      0.00000     0.98068    0.00000     0.98068
      H   16    0.00645      0.00000     0.99355    0.00000     0.99355
      H   17    0.02975      0.00000     0.97025    0.00000     0.97025
      H   18    0.02398      0.00000     0.97602    0.00000     0.97602
      H   19    0.01931      0.00000     0.98069    0.00000     0.98069
      H   20    0.03661      0.00000     0.96339    0.00000     0.96339
      H   21    0.02743      0.00000     0.97257    0.00000     0.97257
      H   22    0.03675      0.00000     0.96325    0.00000     0.96325
      H   23    0.02938      0.00000     0.97062    0.00000     0.97062
      H   24    0.19207      0.00000     0.80793    0.00000     0.80793
      H   25    0.02389      0.00000     0.97611    0.00000     0.97611
      H   26    0.03517      0.00000     0.96483    0.00000     0.96483
      H   27    0.03805      0.00000     0.96195    0.00000     0.96195
      H   28    0.04099      0.00000     0.95901    0.00000     0.95901
      H   29    0.03927      0.00000     0.96073    0.00000     0.96073
      H   30    0.02737      0.00000     0.97263    0.00000     0.97263
      H   31    0.03711      0.00000     0.96289    0.00000     0.96289
 =======================================================================
   * Total *    0.00000     21.99954    66.00046    0.00000    88.00000

                                 Natural Population      
 --------------------------------------------------------
   Core                      21.99954 ( 99.9979% of  22)
   Valence                   66.00046 (100.0007% of  66)
   Natural Minimal Basis     88.00000 (100.0000% of  88)
   Natural Rydberg Basis      0.00000 (  0.0000% of  88)
 --------------------------------------------------------

    Atom  No          Natural Electron Configuration
 ----------------------------------------------------------------------------
      C    1      [core]2S( 1.08)2p( 3.05)
      C    2      [core]2S( 1.08)2p( 2.90)
      C    3      [core]2S( 1.09)2p( 2.77)
      C    4      [core]2S( 1.09)2p( 2.98)
      C    5      [core]2S( 1.11)2p( 2.91)
      C    6      [core]2S( 1.08)2p( 2.98)
      C    7      [core]2S( 1.09)2p( 2.99)
      O    8      [core]2S( 1.75)2p( 4.59)
      C    9      [core]2S( 1.09)2p( 2.89)
      C   10      [core]2S( 1.08)2p( 3.05)
      C   11      [core]2S( 1.08)2p( 3.05)
      H   12            1S( 0.97)
      H   13            1S( 0.97)
      H   14            1S( 0.96)
      H   15            1S( 0.98)
      H   16            1S( 0.99)
      H   17            1S( 0.97)
      H   18            1S( 0.98)
      H   19            1S( 0.98)
      H   20            1S( 0.96)
      H   21            1S( 0.97)
      H   22            1S( 0.96)
      H   23            1S( 0.97)
      H   24            1S( 0.81)
      H   25            1S( 0.98)
      H   26            1S( 0.96)
      H   27            1S( 0.96)
      H   28            1S( 0.96)
      H   29            1S( 0.96)
      H   30            1S( 0.97)
      H   31            1S( 0.96)


 NATURAL BOND ORBITAL ANALYSIS:

                       Occupancies       Lewis Structure    Low   High
           Occ.    -------------------  -----------------   occ   occ
  Cycle   Thresh.   Lewis   Non-Lewis     CR  BD  3C  LP    (L)   (NL)   Dev
 =============================================================================
   1(1)    1.90    87.64234   0.35766     11  31   0   2     0      0    0.02
 -----------------------------------------------------------------------------

 Structure accepted: No low occupancy Lewis orbitals

 --------------------------------------------------------
   Core                     21.99953 ( 99.998% of  22)
   Valence Lewis            65.64281 ( 99.459% of  66)
  ==================       ============================
   Total Lewis              87.64234 ( 99.594% of  88)
  -----------------------------------------------------
   Valence non-Lewis         0.35766 (  0.406% of  88)
   Rydberg non-Lewis         0.00000 (  0.000% of  88)
  ==================       ============================
   Total non-Lewis           0.35766 (  0.406% of  88)
 --------------------------------------------------------


       (Occupancy)   Bond orbital/ Coefficients/ Hybrids
 ---------------------------------------------------------------------------------
     1. (1.99043) BD ( 1) C   1 - C   2  
                ( 50.76%)   0.7125* C   1 s( 25.74%)p 2.89( 74.26%)
                                            0.0001  0.5073 -0.5443  0.2083 -0.6348
                ( 49.24%)   0.7017* C   2 s( 25.11%)p 2.98( 74.89%)
                                            0.0000  0.5011  0.5187 -0.2269  0.6545
     2. (1.99481) BD ( 1) C   1 - H  12  
                ( 51.63%)   0.7185* C   1 s( 24.65%)p 3.06( 75.35%)
                                            0.0000  0.4965  0.5566 -0.6048 -0.2790
                ( 48.37%)   0.6955* H  12 s(100.00%)
                                            1.0000
     3. (1.99502) BD ( 1) C   1 - H  13  
                ( 51.67%)   0.7189* C   1 s( 24.67%)p 3.05( 75.33%)
                                            0.0000  0.4967  0.4448  0.7034  0.2464
                ( 48.33%)   0.6952* H  13 s(100.00%)
                                            1.0000
     4. (1.99541) BD ( 1) C   1 - H  14  
                ( 52.27%)   0.7230* C   1 s( 24.94%)p 3.01( 75.06%)
                                            0.0000  0.4994 -0.4428 -0.3098  0.6771
                ( 47.73%)   0.6909* H  14 s(100.00%)
                                            1.0000
     5. (1.98517) BD ( 1) C   2 - C   6  
                ( 49.74%)   0.7053* C   2 s( 25.36%)p 2.94( 74.64%)
                                            0.0000  0.5036 -0.5329  0.6303  0.2552
                ( 50.26%)   0.7089* C   6 s( 25.36%)p 2.94( 74.64%)
                                            0.0001  0.5036  0.4995 -0.6587 -0.2511
     6. (1.98513) BD ( 1) C   2 - C   7  
                ( 49.21%)   0.7015* C   2 s( 25.26%)p 2.96( 74.74%)
                                            0.0000  0.5026 -0.4593 -0.6853 -0.2583
                ( 50.79%)   0.7127* C   7 s( 25.43%)p 2.93( 74.57%)
                                            0.0001  0.5043  0.4177  0.6891  0.3105
     7. (1.98636) BD ( 1) C   2 - H  15  
                ( 50.89%)   0.7133* C   2 s( 24.27%)p 3.12( 75.73%)
                                            0.0000  0.4926  0.4858  0.2856 -0.6631
                ( 49.11%)   0.7008* H  15 s(100.00%)
                                            1.0000
     8. (1.98332) BD ( 1) C   3 - C   5  
                ( 49.88%)   0.7063* C   3 s( 26.11%)p 2.83( 73.89%)
                                            0.0000  0.5110 -0.4286  0.7125 -0.2179
                ( 50.12%)   0.7079* C   5 s( 25.79%)p 2.88( 74.21%)
                                            0.0000  0.5078  0.4201 -0.6825  0.3159
     9. (1.98644) BD ( 1) C   3 - C   7  
                ( 50.00%)   0.7071* C   3 s( 26.12%)p 2.83( 73.88%)
                                            0.0000  0.5110  0.8185  0.0469 -0.2583
                ( 50.00%)   0.7071* C   7 s( 25.04%)p 2.99( 74.96%)
                                            0.0001  0.5004 -0.8139 -0.0060  0.2953
    10. (1.98940) BD ( 1) C   3 - O   8  
                ( 40.93%)   0.6398* C   3 s( 22.38%)p 3.47( 77.62%)
                                            0.0000  0.4731 -0.0140 -0.0794  0.8773
                ( 59.07%)   0.7685* O   8 s( 16.69%)p 4.99( 83.31%)
                                            0.0000  0.4085 -0.0730  0.0819 -0.9061
    11. (1.98847) BD ( 1) C   3 - H  16  
                ( 50.52%)   0.7108* C   3 s( 25.39%)p 2.94( 74.61%)
                                            0.0000  0.5039 -0.3823 -0.6956 -0.3408
                ( 49.48%)   0.7034* H  16 s(100.00%)
                                            1.0000
    12. (1.98485) BD ( 1) C   4 - C   5  
                ( 50.27%)   0.7090* C   4 s( 25.47%)p 2.93( 74.53%)
                                            0.0001  0.5046 -0.4796 -0.7175  0.0215
                ( 49.73%)   0.7052* C   5 s( 25.32%)p 2.95( 74.68%)
                                            0.0000  0.5032  0.4895  0.7087  0.0712
    13. (1.99042) BD ( 1) C   4 - C   6  
                ( 50.23%)   0.7088* C   4 s( 25.41%)p 2.94( 74.59%)
                                            0.0000  0.5041  0.6803 -0.0844  0.5254
                ( 49.77%)   0.7055* C   6 s( 25.15%)p 2.98( 74.85%)
                                            0.0000  0.5014 -0.6904  0.0575 -0.5182
    14. (1.98967) BD ( 1) C   4 - H  17  
                ( 51.48%)   0.7175* C   4 s( 25.12%)p 2.98( 74.88%)
                                            0.0000  0.5012 -0.4771  0.6787  0.2460
                ( 48.52%)   0.6966* H  17 s(100.00%)
                                            1.0000
    15. (1.99151) BD ( 1) C   4 - H  18  
                ( 51.19%)   0.7155* C   4 s( 24.00%)p 3.17( 76.00%)
                                            0.0000  0.4899  0.2821  0.1317 -0.8143
                ( 48.81%)   0.6986* H  18 s(100.00%)
                                            1.0000
    16. (1.97956) BD ( 1) C   5 - C   9  
                ( 49.98%)   0.7069* C   5 s( 25.79%)p 2.88( 74.21%)
                                            0.0001  0.5078 -0.7452  0.1122  0.4173
                ( 50.02%)   0.7073* C   9 s( 25.52%)p 2.92( 74.48%)
                                            0.0001  0.5052  0.7922 -0.1575 -0.3040
    17. (1.98343) BD ( 1) C   5 - H  19  
                ( 50.78%)   0.7126* C   5 s( 23.11%)p 3.33( 76.89%)
                                            0.0000  0.4807 -0.1689 -0.1393 -0.8491
                ( 49.22%)   0.7016* H  19 s(100.00%)
                                            1.0000
    18. (1.99056) BD ( 1) C   6 - H  20  
                ( 51.88%)   0.7203* C   6 s( 24.80%)p 3.03( 75.20%)
                                            0.0000  0.4980 -0.2620 -0.1292  0.8165
                ( 48.12%)   0.6937* H  20 s(100.00%)
                                            1.0000
    19. (1.98983) BD ( 1) C   6 - H  21  
                ( 51.32%)   0.7164* C   6 s( 24.70%)p 3.05( 75.30%)
                                            0.0000  0.4970  0.4530  0.7390 -0.0408
                ( 48.68%)   0.6977* H  21 s(100.00%)
                                            1.0000
    20. (1.98956) BD ( 1) C   7 - H  22  
                ( 51.81%)   0.7198* C   7 s( 25.20%)p 2.97( 74.80%)
                                            0.0000  0.5020  0.4038 -0.7237  0.2474
                ( 48.19%)   0.6942* H  22 s(100.00%)
                                            1.0000
    21. (1.98944) BD ( 1) C   7 - H  23  
                ( 51.38%)   0.7168* C   7 s( 24.33%)p 3.11( 75.67%)
                                            0.0000  0.4932 -0.0124  0.0382 -0.8690
                ( 48.62%)   0.6973* H  23 s(100.00%)
                                            1.0000
    22. (1.98902) BD ( 1) O   8 - H  24  
                ( 59.63%)   0.7722* O   8 s( 16.91%)p 4.91( 83.09%)
                                            0.0000 -0.4112  0.7812  0.4200 -0.2103
                ( 40.37%)   0.6354* H  24 s(100.00%)
                                           -1.0000
    23. (1.99019) BD ( 1) C   9 - C  10  
                ( 49.20%)   0.7014* C   9 s( 25.50%)p 2.92( 74.50%)
                                            0.0000  0.5050  0.0426  0.2293  0.8310
                ( 50.80%)   0.7128* C  10 s( 25.96%)p 2.85( 74.04%)
                                            0.0001  0.5095  0.0157 -0.2644 -0.8187
    24. (1.98947) BD ( 1) C   9 - C  11  
                ( 48.76%)   0.6983* C   9 s( 24.96%)p 3.01( 75.04%)
                                            0.0000  0.4996 -0.4913 -0.7086 -0.0829
                ( 51.24%)   0.7158* C  11 s( 25.81%)p 2.87( 74.19%)
                                            0.0001  0.5080  0.5246  0.6761  0.0979
    25. (1.98329) BD ( 1) C   9 - H  25  
                ( 51.04%)   0.7144* C   9 s( 24.02%)p 3.16( 75.98%)
                                            0.0000  0.4901 -0.3595  0.6484 -0.4584
                ( 48.96%)   0.6997* H  25 s(100.00%)
                                            1.0000
    26. (1.99429) BD ( 1) C  10 - H  26  
                ( 51.74%)   0.7193* C  10 s( 24.20%)p 3.13( 75.80%)
                                            0.0000  0.4919 -0.8096  0.2385  0.2136
                ( 48.26%)   0.6947* H  26 s(100.00%)
                                            1.0000
    27. (1.99499) BD ( 1) C  10 - H  27  
                ( 51.98%)   0.7210* C  10 s( 24.91%)p 3.01( 75.09%)
                                            0.0000  0.4991  0.2518 -0.6433  0.5232
                ( 48.02%)   0.6930* H  27 s(100.00%)
                                            1.0000
    28. (1.99429) BD ( 1) C  10 - H  28  
                ( 52.07%)   0.7216* C  10 s( 24.93%)p 3.01( 75.07%)
                                            0.0000  0.4993  0.5299  0.6778  0.1020
                ( 47.93%)   0.6923* H  28 s(100.00%)
                                            1.0000
    29. (1.99475) BD ( 1) C  11 - H  29  
                ( 51.97%)   0.7209* C  11 s( 24.68%)p 3.05( 75.32%)
                                            0.0000  0.4968 -0.8020  0.2120  0.2551
                ( 48.03%)   0.6931* H  29 s(100.00%)
                                            1.0000
    30. (1.99429) BD ( 1) C  11 - H  30  
                ( 51.41%)   0.7170* C  11 s( 24.79%)p 3.03( 75.21%)
                                            0.0000  0.4979  0.2851 -0.6646  0.4788
                ( 48.59%)   0.6971* H  30 s(100.00%)
                                            1.0000
    31. (1.99505) BD ( 1) C  11 - H  31  
                ( 51.88%)   0.7202* C  11 s( 24.72%)p 3.04( 75.28%)
                                            0.0000  0.4972 -0.0201 -0.2372 -0.8343
                ( 48.12%)   0.6937* H  31 s(100.00%)
                                            1.0000
    32. (1.99997) CR ( 1) C   1           s(100.00%)
                                            1.0000  0.0000  0.0000  0.0000  0.0000
    33. (1.99996) CR ( 1) C   2           s(100.00%)
                                            1.0000  0.0000  0.0001  0.0000  0.0000
    34. (1.99989) CR ( 1) C   3           s(100.00%)
                                            1.0000  0.0000  0.0000  0.0000  0.0000
    35. (1.99996) CR ( 1) C   4           s(100.00%)
                                            1.0000  0.0000  0.0000  0.0001 -0.0001
    36. (1.99995) CR ( 1) C   5           s(100.00%)
                                            1.0000  0.0000  0.0000  0.0000 -0.0001
    37. (1.99996) CR ( 1) C   6           s(100.00%)
                                            1.0000  0.0000  0.0000  0.0001  0.0000
    38. (1.99995) CR ( 1) C   7           s(100.00%)
                                            1.0000 -0.0001  0.0000 -0.0001 -0.0001
    39. (1.99999) CR ( 1) O   8           s(100.00%)
                                            1.0000  0.0000  0.0000  0.0000  0.0000
    40. (1.99996) CR ( 1) C   9           s(100.00%)
                                            1.0000  0.0000 -0.0001  0.0000  0.0000
    41. (1.99997) CR ( 1) C  10           s(100.00%)
                                            1.0000  0.0000  0.0000  0.0000  0.0001
    42. (1.99997) CR ( 1) C  11           s(100.00%)
                                            1.0000  0.0000 -0.0001  0.0000  0.0000
    43. (1.99300) LP ( 1) O   8           s( 66.19%)p 0.51( 33.81%)
                                            0.0000  0.8136  0.4049  0.2208  0.3541
    44. (1.97139) LP ( 2) O   8           s(  0.21%)p99.99( 99.79%)
                                            0.0000  0.0461  0.4696 -0.8764 -0.0962
    45. (0.00944) BD*( 1) C   1 - C   2  
                ( 49.24%)   0.7017* C   1 s( 25.74%)p 2.89( 74.26%)
                                           -0.0001 -0.5073  0.5443 -0.2083  0.6348
                ( 50.76%)  -0.7125* C   2 s( 25.11%)p 2.98( 74.89%)
                                            0.0000 -0.5011 -0.5187  0.2269 -0.6545
    46. (0.00509) BD*( 1) C   1 - H  12  
                ( 48.37%)   0.6955* C   1 s( 24.65%)p 3.06( 75.35%)
                                            0.0000 -0.4965 -0.5566  0.6048  0.2790
                ( 51.63%)  -0.7185* H  12 s(100.00%)
                                           -1.0000
    47. (0.00510) BD*( 1) C   1 - H  13  
                ( 48.33%)   0.6952* C   1 s( 24.67%)p 3.05( 75.33%)
                                            0.0000 -0.4967 -0.4448 -0.7034 -0.2464
                ( 51.67%)  -0.7189* H  13 s(100.00%)
                                           -1.0000
    48. (0.00593) BD*( 1) C   1 - H  14  
                ( 47.73%)   0.6909* C   1 s( 24.94%)p 3.01( 75.06%)
                                            0.0000 -0.4994  0.4428  0.3098 -0.6771
                ( 52.27%)  -0.7230* H  14 s(100.00%)
                                           -1.0000
    49. (0.01576) BD*( 1) C   2 - C   6  
                ( 50.26%)   0.7089* C   2 s( 25.36%)p 2.94( 74.64%)
                                            0.0000  0.5036 -0.5329  0.6303  0.2552
                ( 49.74%)  -0.7053* C   6 s( 25.36%)p 2.94( 74.64%)
                                            0.0001  0.5036  0.4995 -0.6587 -0.2511
    50. (0.01730) BD*( 1) C   2 - C   7  
                ( 50.79%)   0.7127* C   2 s( 25.26%)p 2.96( 74.74%)
                                            0.0000  0.5026 -0.4593 -0.6853 -0.2583
                ( 49.21%)  -0.7015* C   7 s( 25.43%)p 2.93( 74.57%)
                                            0.0001  0.5043  0.4177  0.6891  0.3105
    51. (0.00999) BD*( 1) C   2 - H  15  
                ( 49.11%)   0.7008* C   2 s( 24.27%)p 3.12( 75.73%)
                                            0.0000 -0.4926 -0.4858 -0.2856  0.6631
                ( 50.89%)  -0.7133* H  15 s(100.00%)
                                           -1.0000
    52. (0.03752) BD*( 1) C   3 - C   5  
                ( 50.12%)   0.7079* C   3 s( 26.11%)p 2.83( 73.89%)
                                            0.0000  0.5110 -0.4286  0.7125 -0.2179
                ( 49.88%)  -0.7063* C   5 s( 25.79%)p 2.88( 74.21%)
                                            0.0000  0.5078  0.4201 -0.6825  0.3159
    53. (0.02212) BD*( 1) C   3 - C   7  
                ( 50.00%)   0.7071* C   3 s( 26.12%)p 2.83( 73.88%)
                                            0.0000 -0.5110 -0.8185 -0.0469  0.2583
                ( 50.00%)  -0.7071* C   7 s( 25.04%)p 2.99( 74.96%)
                                           -0.0001 -0.5004  0.8139  0.0060 -0.2953
    54. (0.02298) BD*( 1) C   3 - O   8  
                ( 59.07%)   0.7685* C   3 s( 22.38%)p 3.47( 77.62%)
                                            0.0000  0.4731 -0.0140 -0.0794  0.8773
                ( 40.93%)  -0.6398* O   8 s( 16.69%)p 4.99( 83.31%)
                                            0.0000  0.4085 -0.0730  0.0819 -0.9061
    55. (0.01914) BD*( 1) C   3 - H  16  
                ( 49.48%)   0.7034* C   3 s( 25.39%)p 2.94( 74.61%)
                                            0.0000 -0.5039  0.3823  0.6956  0.3408
                ( 50.52%)  -0.7108* H  16 s(100.00%)
                                           -1.0000
    56. (0.01769) BD*( 1) C   4 - C   5  
                ( 49.73%)   0.7052* C   4 s( 25.47%)p 2.93( 74.53%)
                                           -0.0001 -0.5046  0.4796  0.7175 -0.0215
                ( 50.27%)  -0.7090* C   5 s( 25.32%)p 2.95( 74.68%)
                                            0.0000 -0.5032 -0.4895 -0.7087 -0.0712
    57. (0.01104) BD*( 1) C   4 - C   6  
                ( 49.77%)   0.7055* C   4 s( 25.41%)p 2.94( 74.59%)
                                            0.0000 -0.5041 -0.6803  0.0844 -0.5254
                ( 50.23%)  -0.7088* C   6 s( 25.15%)p 2.98( 74.85%)
                                            0.0000 -0.5014  0.6904 -0.0575  0.5182
    58. (0.00940) BD*( 1) C   4 - H  17  
                ( 48.52%)   0.6966* C   4 s( 25.12%)p 2.98( 74.88%)
                                            0.0000 -0.5012  0.4771 -0.6787 -0.2460
                ( 51.48%)  -0.7175* H  17 s(100.00%)
                                           -1.0000
    59. (0.00790) BD*( 1) C   4 - H  18  
                ( 48.81%)   0.6986* C   4 s( 24.00%)p 3.17( 76.00%)
                                            0.0000 -0.4899 -0.2821 -0.1317  0.8143
                ( 51.19%)  -0.7155* H  18 s(100.00%)
                                           -1.0000
    60. (0.02223) BD*( 1) C   5 - C   9  
                ( 50.02%)   0.7073* C   5 s( 25.79%)p 2.88( 74.21%)
                                            0.0001  0.5078 -0.7452  0.1122  0.4173
                ( 49.98%)  -0.7069* C   9 s( 25.52%)p 2.92( 74.48%)
                                            0.0001  0.5052  0.7922 -0.1575 -0.3040
    61. (0.00862) BD*( 1) C   5 - H  19  
                ( 49.22%)   0.7016* C   5 s( 23.11%)p 3.33( 76.89%)
                                            0.0000 -0.4807  0.1689  0.1393  0.8491
                ( 50.78%)  -0.7126* H  19 s(100.00%)
                                           -1.0000
    62. (0.01071) BD*( 1) C   6 - H  20  
                ( 48.12%)   0.6937* C   6 s( 24.80%)p 3.03( 75.20%)
                                            0.0000 -0.4980  0.2620  0.1292 -0.8165
                ( 51.88%)  -0.7203* H  20 s(100.00%)
                                           -1.0000
    63. (0.00779) BD*( 1) C   6 - H  21  
                ( 48.68%)   0.6977* C   6 s( 24.70%)p 3.05( 75.30%)
                                            0.0000 -0.4970 -0.4530 -0.7390  0.0408
                ( 51.32%)  -0.7164* H  21 s(100.00%)
                                           -1.0000
    64. (0.00861) BD*( 1) C   7 - H  22  
                ( 48.19%)   0.6942* C   7 s( 25.20%)p 2.97( 74.80%)
                                            0.0000 -0.5020 -0.4038  0.7237 -0.2474
                ( 51.81%)  -0.7198* H  22 s(100.00%)
                                           -1.0000
    65. (0.00666) BD*( 1) C   7 - H  23  
                ( 48.62%)   0.6973* C   7 s( 24.33%)p 3.11( 75.67%)
                                            0.0000 -0.4932  0.0124 -0.0382  0.8690
                ( 51.38%)  -0.7168* H  23 s(100.00%)
                                           -1.0000
    66. (0.00837) BD*( 1) O   8 - H  24  
                ( 40.37%)   0.6354* O   8 s( 16.91%)p 4.91( 83.09%)
                                            0.0000  0.4112 -0.7812 -0.4200  0.2103
                ( 59.63%)  -0.7722* H  24 s(100.00%)
                                            1.0000
    67. (0.01152) BD*( 1) C   9 - C  10  
                ( 50.80%)   0.7128* C   9 s( 25.50%)p 2.92( 74.50%)
                                            0.0000  0.5050  0.0426  0.2293  0.8310
                ( 49.20%)  -0.7014* C  10 s( 25.96%)p 2.85( 74.04%)
                                            0.0001  0.5095  0.0157 -0.2644 -0.8187
    68. (0.01081) BD*( 1) C   9 - C  11  
                ( 51.24%)   0.7158* C   9 s( 24.96%)p 3.01( 75.04%)
                                            0.0000  0.4996 -0.4913 -0.7086 -0.0829
                ( 48.76%)  -0.6983* C  11 s( 25.81%)p 2.87( 74.19%)
                                            0.0001  0.5080  0.5246  0.6761  0.0979
    69. (0.01011) BD*( 1) C   9 - H  25  
                ( 48.96%)   0.6997* C   9 s( 24.02%)p 3.16( 75.98%)
                                            0.0000 -0.4901  0.3595 -0.6484  0.4584
                ( 51.04%)  -0.7144* H  25 s(100.00%)
                                           -1.0000
    70. (0.00478) BD*( 1) C  10 - H  26  
                ( 48.26%)   0.6947* C  10 s( 24.20%)p 3.13( 75.80%)
                                            0.0000 -0.4919  0.8096 -0.2385 -0.2136
                ( 51.74%)  -0.7193* H  26 s(100.00%)
                                           -1.0000
    71. (0.00762) BD*( 1) C  10 - H  27  
                ( 48.02%)   0.6930* C  10 s( 24.91%)p 3.01( 75.09%)
                                            0.0000 -0.4991 -0.2518  0.6433 -0.5232
                ( 51.98%)  -0.7210* H  27 s(100.00%)
                                           -1.0000
    72. (0.00618) BD*( 1) C  10 - H  28  
                ( 47.93%)   0.6923* C  10 s( 24.93%)p 3.01( 75.07%)
                                            0.0000 -0.4993 -0.5299 -0.6778 -0.1020
[...]
    8       2.1677        1.6260       0.5417         1.5467       0.6210
    9       1.1474        0.9889       0.1585         0.3520       0.7954
   10      25.6751       11.0466      14.6285        15.0730      10.6021
   11      -0.5203       -1.0599       0.5396        -1.7539       1.2336
   20      -0.1798       -0.7372       0.5575        -1.0169       0.8371
   22      24.3299       13.0606      11.2693         9.8457      14.4842
   27      -0.4016       -1.1410       0.7394        -0.9729       0.5713
   39     271.1822       -0.0046     271.1868        -0.0037     271.1859
   43      33.9432       -3.0727      37.0160        -3.4675      37.4107
   44       7.9106      -30.6433      38.5539       -31.9379      39.8485
 Sum      365.2545       -9.9367     375.1912       -12.3354     377.5900

 Contributions to Isotropic shielding for atom    9 (   212.1294 ppm):
                         Standard Origin              Atomic Origin
 NLMO      Total    Paramagnetic  Diamagnetic   Paramagnetic  Diamagnetic
   10      -0.0180       -0.2330       0.2150        -1.1031       1.0851
   14      -0.4500       -0.9219       0.4719        -1.4381       0.9881
   16       5.1170       -9.3982      14.5153        -2.6742       7.7912
   23      -0.0183       -6.9345       6.9163        -7.6476       7.6294
   24      -2.2855       -5.4682       3.1828        -9.6441       7.3587
   25       4.6537       -0.4276       5.0813        -6.2037      10.8574
   26       0.5892       -0.1150       0.7043        -0.4451       1.0343
   27       0.7792       -0.3136       1.0928        -0.2292       1.0084
   28       0.5909       -0.5102       1.1011        -0.4139       1.0048
   29       0.6216       -0.3360       0.9576        -0.4163       1.0378
   30       1.0301       -0.3713       1.4014         0.0045       1.0256
   31       0.6671       -0.5894       1.2564        -0.3731       1.0401
   40     199.9272       -0.0026     199.9298         0.0029     199.9243
 Sum      211.2042      -25.6216     236.8258       -30.5811     241.7852

 Contributions to Isotropic shielding for atom   10 (   223.5759 ppm):
                         Standard Origin              Atomic Origin
 NLMO      Total    Paramagnetic  Diamagnetic   Paramagnetic  Diamagnetic
   23       3.6855       -8.5023      12.1878        -4.2250       7.9105
   24      -0.3762       -0.1388      -0.2374        -1.0114       0.6352
   25       0.3285       -0.0021       0.3306        -0.7016       1.0301
   26       5.6413        3.1766       2.4647        -5.3871      11.0284
   27       6.7650       -5.2704      12.0354        -4.4211      11.1861
   28       6.8485       -5.1595      12.0080        -4.3620      11.2105
   41     200.0740       -0.0022     200.0761         0.0014     200.0726
 Sum      222.9666      -15.8987     238.8652       -20.1068     243.0734

 Contributions to Isotropic shielding for atom   11 (   221.6809 ppm):
                         Standard Origin              Atomic Origin
 NLMO      Total    Paramagnetic  Diamagnetic   Paramagnetic  Diamagnetic
   23      -0.4704       -0.0259      -0.4445        -1.1595       0.6891
   24       4.1494      -11.4304      15.5798        -3.9501       8.0995
   25       0.3104        0.2066       0.1039        -0.6981       1.0085
   29       5.0815        2.5917       2.4897        -6.0709      11.1524
   30       6.6805       -5.3258      12.0063        -4.2938      10.9743
   31       5.6300       -2.8497       8.4797        -5.4932      11.1232
   42     200.0754       -0.0033     200.0787         0.0020     200.0734
 Sum      221.4569      -16.8368     238.2937       -21.6635     243.1204

 Contributions to Isotropic shielding for atom   12 (    32.4306 ppm):
                         Standard Origin              Atomic Origin
 NLMO      Total    Paramagnetic  Diamagnetic   Paramagnetic  Diamagnetic
    1       1.3052        0.0038       1.3013         0.3471       0.9580
    2      26.4819        0.1226      26.3593         0.4565      26.0254
    3       1.8913        2.4222      -0.5309         0.0541       1.8372
    4       2.0247        0.9482       1.0765         0.1610       1.8637
    6      -0.1326        0.4719      -0.6045        -1.0434       0.9108
 Sum       31.5705        3.9687      27.6018        -0.0248      31.5953

 Contributions to Isotropic shielding for atom   13 (    32.4198 ppm):
                         Standard Origin              Atomic Origin
 NLMO      Total    Paramagnetic  Diamagnetic   Paramagnetic  Diamagnetic
    1       1.3403       -0.0933       1.4336         0.3567       0.9835
    2       1.8360        2.4097      -0.5737         0.0105       1.8255
    3      26.4491        0.1438      26.3053         0.4488      26.0003
    4       2.0411        0.8675       1.1737         0.1823       1.8588
    5      -0.1052        0.4922      -0.5973        -1.0869       0.9817
 Sum       31.5614        3.8198      27.7416        -0.0886      31.6499

 Contributions to Isotropic shielding for atom   14 (    32.1236 ppm):
                         Standard Origin              Atomic Origin
 NLMO      Total    Paramagnetic  Diamagnetic   Paramagnetic  Diamagnetic
    1       1.7083       -1.4119       3.1202         0.8331       0.8752
    2       1.9141        1.3307       0.5834         0.0989       1.8152
    3       1.9396        1.2257       0.7139         0.1174       1.8222
    4      26.0888        0.4045      25.6844         0.4106      25.6783
   18      -0.2061       -0.0397      -0.1664        -1.0134       0.8073
   43      -0.6710       -0.0757      -0.5953         0.4262      -1.0972
 Sum       30.7737        1.4336      29.3401         0.8727      29.9009

 Contributions to Isotropic shielding for atom   15 (    32.4099 ppm):
                         Standard Origin              Atomic Origin
 NLMO      Total    Paramagnetic  Diamagnetic   Paramagnetic  Diamagnetic
    1       0.8028        2.4682      -1.6653        -0.2292       1.0320
    5       1.3479        0.9352       0.4127         0.3873       0.9606
    6       1.2450        0.9713       0.2737         0.2217       1.0233
    7      26.6296       -0.3066      26.9362         0.4716      26.1580
   19       0.0485        0.0206       0.0279        -0.9786       1.0270
   21      -0.1412       -0.1830       0.0418        -1.3239       1.1827
 Sum       29.9326        3.9056      26.0270        -1.4511      31.3837

 Contributions to Isotropic shielding for atom   16 (    31.9013 ppm):
                         Standard Origin              Atomic Origin
 NLMO      Total    Paramagnetic  Diamagnetic   Paramagnetic  Diamagnetic
    8       0.8728        0.3829       0.4898        -0.1487       1.0215
    9       0.6942        0.8925      -0.1983        -0.4548       1.1491
   10       0.5740        0.8865      -0.3124        -0.8814       1.4554
   11      26.8753        0.2900      26.5854         0.8324      26.0429
   17       0.0904       -0.2288       0.3192        -0.9139       1.0043
   22       0.0547       -0.6013       0.6559        -1.0239       1.0785
   30      -0.1871       -1.0408       0.8537        -0.9527       0.7657
 Sum       28.9744        0.5811      28.3933        -3.5430      32.5175

 Contributions to Isotropic shielding for atom   17 (    32.4217 ppm):
                         Standard Origin              Atomic Origin
 NLMO      Total    Paramagnetic  Diamagnetic   Paramagnetic  Diamagnetic
   12       1.3677        0.4108       0.9568         0.4944       0.8733
   13       1.1149        0.9217       0.1932         0.1096       1.0052
   14      26.4306        0.0542      26.3763         0.4790      25.9515
   15       2.0266        1.7681       0.2584         0.2506       1.7760
   16      -0.1647       -0.1101      -0.0546        -1.3488       1.1841
   23       0.0076       -0.3832       0.3908        -1.0016       1.0092
 Sum       30.7825        2.6615      28.1210        -1.0168      31.7993

 Contributions to Isotropic shielding for atom   18 (    32.3639 ppm):
                         Standard Origin              Atomic Origin
 NLMO      Total    Paramagnetic  Diamagnetic   Paramagnetic  Diamagnetic
   12       1.3483        0.4637       0.8846         0.3247       1.0236
   13       1.0913        1.0361       0.0552         0.0705       1.0209
   14       1.9786        1.6561       0.3225         0.1387       1.8399
   15      26.5534       -0.0714      26.6249         0.4346      26.1189
   17      -0.2144       -0.3863       0.1720        -1.3734       1.1590
 Sum       30.7572        2.6982      28.0591        -0.4049      31.1622

 Contributions to Isotropic shielding for atom   19 (    32.4904 ppm):
                         Standard Origin              Atomic Origin
 NLMO      Total    Paramagnetic  Diamagnetic   Paramagnetic  Diamagnetic
    8       1.3679        0.9983       0.3695         0.2736       1.0943
   12       1.1118        1.1258      -0.0140        -0.0904       1.2022
   15      -0.1679       -0.7805       0.6126        -1.3609       1.1930
   16       1.0302        1.4965      -0.4663        -0.1758       1.2060
   17      26.6126       -0.2310      26.8435         0.4250      26.1876
   31      -0.1335       -1.3919       1.2584        -1.0093       0.8758
 Sum       29.8210        1.2172      28.6038        -1.9379      31.7589

 Contributions to Isotropic shielding for atom   20 (    32.4134 ppm):
                         Standard Origin              Atomic Origin
 NLMO      Total    Paramagnetic  Diamagnetic   Paramagnetic  Diamagnetic
    1      -0.0772       -0.6506       0.5734        -1.1243       1.0470
    4      -0.0475       -1.0921       1.0446        -0.9845       0.9370
    5       1.3442        0.4522       0.8921         0.5494       0.7948
   10       0.1183       -0.4455       0.5639        -1.1190       1.2374
   13       1.3634       -0.1643       1.5277         0.4675       0.8959
   18      26.1661        0.2818      25.8843         0.4045      25.7615
   19       1.9584        1.5747       0.3837         0.1796       1.7788
   43      -0.5856        0.1905      -0.7761         0.5631      -1.1487
 Sum       30.2401        0.1465      30.0936        -1.0636      31.3038

 Contributions to Isotropic shielding for atom   21 (    32.4044 ppm):
                         Standard Origin              Atomic Origin
 NLMO      Total    Paramagnetic  Diamagnetic   Paramagnetic  Diamagnetic
    3      -0.0832       -1.1262       1.0430        -0.9412       0.8580
    5       0.9874        1.4612      -0.4738         0.0347       0.9527
    7       0.0906       -0.2520       0.3426        -0.9219       1.0125
   13       1.1319        1.0293       0.1026         0.1889       0.9431
   18       2.1358        1.1557       0.9801         0.3447       1.7911
   19      26.5181       -0.0585      26.5766         0.4585      26.0596
 Sum       30.7807        2.2096      28.5710        -0.8363      31.6170

 Contributions to Isotropic shielding for atom   22 (    32.0744 ppm):
                         Standard Origin              Atomic Origin
 NLMO      Total    Paramagnetic  Diamagnetic   Paramagnetic  Diamagnetic
    1      -0.1992       -0.3590       0.1598        -1.3463       1.1470
    2      -0.0392       -1.2846       1.2453        -0.9881       0.9489
    6       1.0845        1.2124      -0.1279         0.0977       0.9867
    9       1.2768        0.5341       0.7427         0.3628       0.9140
   10       0.0016        0.0728      -0.0712        -1.5052       1.5068
   20      26.2213        0.0330      26.1883         0.4816      25.7397
   21       2.0228        1.7133       0.3095         0.2786       1.7442
 Sum       30.3685        1.9219      28.4466        -2.6188      32.9873

 Contributions to Isotropic shielding for atom   23 (    32.4040 ppm):
                         Standard Origin              Atomic Origin
 NLMO      Total    Paramagnetic  Diamagnetic   Paramagnetic  Diamagnetic
    6       1.1346        0.8716       0.2630         0.0812       1.0533
    7      -0.0694       -0.6825       0.6131        -1.2024       1.1330
    9       1.4537        0.3858       1.0679         0.5985       0.8552
   20       1.9518        1.7572       0.1946         0.1379       1.8139
   21      26.4354        0.0390      26.3964         0.4256      26.0099
 Sum       30.9061        2.3711      28.5351         0.0408      30.8653

 Contributions to Isotropic shielding for atom   24 (    34.9026 ppm):
                         Standard Origin              Atomic Origin
 NLMO      Total    Paramagnetic  Diamagnetic   Paramagnetic  Diamagnetic
   10       1.5510        2.2903      -0.7393         0.8039       0.7471
   11      -0.0073       -0.1934       0.1862        -1.1697       1.1624
   22      22.9025       -0.6537      23.5562        -0.2171      23.1196
   27      -0.4577       -1.1554       0.6977        -0.6945       0.2368
   30      -0.3826       -1.3521       0.9694        -0.6192       0.2365
   43       3.9445        0.7499       3.1946         2.0014       1.9430
   44       5.5496        2.5095       3.0401         2.3011       3.2484
 Sum       33.0999        2.1950      30.9049         2.4060      30.6939

 Contributions to Isotropic shielding for atom   25 (    32.4066 ppm):
                         Standard Origin              Atomic Origin
 NLMO      Total    Paramagnetic  Diamagnetic   Paramagnetic  Diamagnetic
   12      -0.0567        0.3108      -0.3675        -1.0111       0.9545
   16       1.6053        0.3081       1.2971         0.5378       1.0675
   23       0.9869        1.5635      -0.5765        -0.1154       1.1024
   24       0.7765        2.1709      -1.3943        -0.2367       1.0133
   25      26.5298       -0.2088      26.7386         0.4733      26.0565
   26       0.1949       -0.2465       0.4414        -0.8270       1.0220
 Sum       30.0368        3.8980      26.1388        -1.1793      31.2160

 Contributions to Isotropic shielding for atom   26 (    32.6297 ppm):
                         Standard Origin              Atomic Origin
 NLMO      Total    Paramagnetic  Diamagnetic   Paramagnetic  Diamagnetic
   23       1.1056        1.0776       0.0280         0.0600       1.0456
   24      -0.1265        0.4400      -0.5665        -1.0263       0.8998
   26      26.3944       -0.0357      26.4301         0.4139      25.9805
   27       2.0163        1.5183       0.4980         0.1332       1.8831
   28       2.0675        1.5532       0.5143         0.1806       1.8869
 Sum       31.4573        4.5535      26.9039        -0.2386      31.6959

 Contributions to Isotropic shielding for atom   27 (    32.8087 ppm):
                         Standard Origin              Atomic Origin
 NLMO      Total    Paramagnetic  Diamagnetic   Paramagnetic  Diamagnetic
   22      -0.2285       -0.4920       0.2635        -1.2335       1.0050
   23       1.4805       -0.4236       1.9041         0.5685       0.9121
   26       1.9920        1.9101       0.0819         0.1218       1.8702
   27      26.2778        0.2788      25.9990         0.3827      25.8951
   28       2.1304        0.2620       1.8684         0.2832       1.8472
 Sum       31.6522        1.5353      30.1170         0.1226      31.5296

 Contributions to Isotropic shielding for atom   28 (    32.3419 ppm):
                         Standard Origin              Atomic Origin
 NLMO      Total    Paramagnetic  Diamagnetic   Paramagnetic  Diamagnetic
   12      -0.0982       -0.0525      -0.0457        -1.0684       0.9703
   23       1.4658       -0.5003       1.9661         0.4653       1.0005
   26       1.9199        1.8568       0.0630         0.0709       1.8490
   27       2.1128        0.2425       1.8704         0.2621       1.8507
   28      26.1952        0.2781      25.9171         0.3741      25.8212
 Sum       31.5956        1.8246      29.7709         0.1039      31.4916

 Contributions to Isotropic shielding for atom   29 (    32.4576 ppm):
                         Standard Origin              Atomic Origin
 NLMO      Total    Paramagnetic  Diamagnetic   Paramagnetic  Diamagnetic
   23      -0.1587        0.6543      -0.8130        -1.1108       0.9521
   24       1.2467        0.4143       0.8324         0.2086       1.0381
   29      26.2900        0.0157      26.2743         0.4462      25.8438
   30       1.9645        1.4294       0.5352         0.1258       1.8388
   31       1.9381        2.0822      -0.1441         0.0882       1.8498
 Sum       31.2806        4.5959      26.6847        -0.2420      31.5226

 Contributions to Isotropic shielding for atom   30 (    33.1621 ppm):
                         Standard Origin              Atomic Origin
 NLMO      Total    Paramagnetic  Diamagnetic   Paramagnetic  Diamagnetic
    8      -0.1197        0.1025      -0.2222        -1.0991       0.9794
   10      -0.1182        0.2097      -0.3279        -1.2085       1.0903
   24       1.6260       -1.1553       2.7813         0.6916       0.9344
   29       1.9572        1.8786       0.0786         0.1049       1.8522
   30      26.5452        0.3238      26.2214         0.3820      26.1632
   31       2.0437        0.8258       1.2179         0.2224       1.8213
 Sum       31.9343        2.1851      29.7492        -0.9065      32.8408

 Contributions to Isotropic shielding for atom   31 (    32.5413 ppm):
                         Standard Origin              Atomic Origin
 NLMO      Total    Paramagnetic  Diamagnetic   Paramagnetic  Diamagnetic
   16      -0.0408        0.1722      -0.2130        -1.0055       0.9647
   24       1.4979       -0.5407       2.0386         0.4633       1.0346
   29       1.9086        2.3534      -0.4449         0.0592       1.8494
   30       2.0370        0.6491       1.3879         0.2221       1.8149
   31      26.3180        0.2306      26.0874         0.4219      25.8961
 Sum       31.7207        2.8646      28.8561         0.1610      31.5597
 
 1\1\GINC-COMPUTE-9-6\SP\RHF\STO-3G\C10H20O1\YTSAI.IQUIR\03-Aug-2021\0\
 \# rhf/STO-3G nmr pop=nbo\\comment\\0,1\C,0,-1.879022535,-0.99113175,-
 2.604873619\C,0,-1.952197895,-0.465190306,-1.170212007\C,0,0.004580111
 ,-1.130276241,0.35510761\C,0,-0.942116183,1.268227637,0.372138884\C,0,
 0.000690686,0.249357508,1.05902286\C,0,-1.270645,0.907839312,-1.071063
 879\C,0,-1.394396618,-1.484808001,-0.156507503\O,0,0.898108464,-1.1897
 26329,-0.748145239\C,0,1.38977951,0.868705227,1.392915077\C,0,2.181761
 74,1.405760907,0.196904764\C,0,2.261030538,-0.087125041,2.213861837\H,
 0,-2.436821974,-1.928390646,-2.703718506\H,0,-2.314190354,-0.269504044
 ,-3.304451041\H,0,-0.844973551,-1.178758245,-2.911683402\H,0,-3.017587
 46,-0.332031666,-0.937224844\H,0,0.315497385,-1.902939148,1.068768465\
 H,0,-0.539131859,2.285830169,0.422097679\H,0,-1.884301468,1.302630742,
 0.93653853\H,0,-0.466374864,0.066385252,2.040087394\H,0,-0.352335448,0
 .932118248,-1.670261937\H,0,-1.932529704,1.671191361,-1.498232814\H,0,
 -1.384998963,-2.48821466,-0.599652982\H,0,-2.075547222,-1.532322549,0.
 703377687\H,0,1.780864523,-1.401463426,-0.402233305\H,0,1.190168698,1.
 735178447,2.039995594\H,0,3.049922636,1.974578358,0.549809506\H,0,2.56
 6281781,0.610322567,-0.445089058\H,0,1.584525693,2.083496165,-0.418849
 239\H,0,3.162461586,0.424392625,2.568795857\H,0,2.582383247,-0.9540688
 25,1.629294187\H,0,1.719114498,-0.450063648,3.093483443\\Version=EM64L
 -G09RevC.01\State=1-A\HF=-459.6068607\RMSD=6.802e-09\Dipole=0.130626,-
 0.0403457,0.5375295\Quadrupole=1.2993318,0.1839743,-1.483306,-0.591479
 7,0.372905,-0.9332228\PG=C01 [X(C10H20O1)]\\@


 ALL MEN WHO EXPLORE
 DEPLORE
 THAT FRUSTRATING HURDLE
 THE GIRDLE.

         -- COLIN FLETCHER
 Job cpu time:  0 days  0 hours  0 minutes 23.0 seconds.
 File lengths (MBytes):  RWF=      5 Int=      0 D2E=      0 Chk=      1 Scr=      1
 Normal termination of Gaussian 09 at Tue Aug  3 16:35:53 2021.
