 Entering Gaussian System, Link 0=g09
 Input=/home/ytsai.iquir/menthol/02_menthol_M0085_MMFF_NMR_rhf_STO-3G_nbo.gjc
 Output=/home/ytsai.iquir/menthol/02_menthol_M0085_MMFF_NMR_rhf_STO-3G_nbo.log
 Initial command:
 /share/apps/Gaussian09/EM64T.SSE4.2-enabled/g09/l1.exe /tmp/Gau-21542.inp -scrdir=/tmp/
 Entering Link 1 = /share/apps/Gaussian09/EM64T.SSE4.2-enabled/g09/l1.exe PID=     21543.
  
 Copyright (c) 1988,1990,1992,1993,1995,1998,2003,2009,2011,
            Gaussian, Inc.  All Rights Reserved.
  
 This is part of the Gaussian(R) 09 program.  It is based on
 the Gaussian(R) 03 system (copyright 2003, Gaussian, Inc.),
 the Gaussian(R) 98 system (copyright 1998, Gaussian, Inc.),
 the Gaussian(R) 94 system (copyright 1995, Gaussian, Inc.),
 the Gaussian 92(TM) system (copyright 1992, Gaussian, Inc.),
 the Gaussian 90(TM) system (copyright 1990, Gaussian, Inc.),
 the Gaussian 88(TM) system (copyright 1988, Gaussian, Inc.),
 the Gaussian 86(TM) system (copyright 1986, Carnegie Mellon
 University), and the Gaussian 82(TM) system (copyright 1983,
 Carnegie Mellon University). Gaussian is a federally registered
 trademark of Gaussian, Inc.
  
 This software contains proprietary and confidential information,
 including trade secrets, belonging to Gaussian, Inc.
  
 This software is provided under written license and may be
 used, copied, transmitted, or stored only in accord with that
 written license.
  
 The following legend is applicable only to US Government
 contracts under FAR:
  
                    RESTRICTED RIGHTS LEGEND
  
 Use, reproduction and disclosure by the US Government is
 subject to restrictions as set forth in subparagraphs (a)
 and (c) of the Commercial Computer Software - Restricted
 Rights clause in FAR 52.227-19.
  
 Gaussian, Inc.
 340 Quinnipiac St., Bldg. 40, Wallingford CT 06492
  
  
 ---------------------------------------------------------------
 Warning -- This program may not be used in any manner that
 competes with the business of Gaussian, Inc. or will provide
 assistance to any competitor of Gaussian, Inc.  The licensee
 of this program is prohibited from giving any competitor of
 Gaussian, Inc. access to this program.  By using this program,
 the user acknowledges that Gaussian, Inc. is engaged in the
 business of creating and licensing software in the field of
 computational chemistry and represents and warrants to the
 licensee that it is not a competitor of Gaussian, Inc. and that
 it will not use this program in any manner prohibited above.
 ---------------------------------------------------------------
  

 Cite this work as:
 Gaussian 09, Revision C.01,
 M. J. Frisch, G. W. Trucks, H. B. Schlegel, G. E. Scuseria, 
 M. A. Robb, J. R. Cheeseman, G. Scalmani, V. Barone, B. Mennucci, 
 G. A. Petersson, H. Nakatsuji, M. Caricato, X. Li, H. P. Hratchian, 
 A. F. Izmaylov, J. Bloino, G. Zheng, J. L. Sonnenberg, M. Hada, 
 M. Ehara, K. Toyota, R. Fukuda, J. Hasegawa, M. Ishida, T. Nakajima, 
 Y. Honda, O. Kitao, H. Nakai, T. Vreven, J. A. Montgomery, Jr., 
 J. E. Peralta, F. Ogliaro, M. Bearpark, J. J. Heyd, E. Brothers, 
 K. N. Kudin, V. N. Staroverov, T. Keith, R. Kobayashi, J. Normand, 
 K. Raghavachari, A. Rendell, J. C. Burant, S. S. Iyengar, J. Tomasi, 
 M. Cossi, N. Rega, J. M. Millam, M. Klene, J. E. Knox, J. B. Cross, 
 V. Bakken, C. Adamo, J. Jaramillo, R. Gomperts, R. E. Stratmann, 
 O. Yazyev, A. J. Austin, R. Cammi, C. Pomelli, J. W. Ochterski, 
 R. L. Martin, K. Morokuma, V. G. Zakrzewski, G. A. Voth, 
 P. Salvador, J. J. Dannenberg, S. Dapprich, A. D. Daniels, 
 O. Farkas, J. B. Foresman, J. V. Ortiz, J. Cioslowski, 
 and D. J. Fox, Gaussian, Inc., Wallingford CT, 2010.
 
 ******************************************
 Gaussian 09:  EM64L-G09RevC.01 23-Sep-2011
                 3-Aug-2021 
 ******************************************
 %nprocshared=4
 Will use up to    4 processors via shared memory.
 ------------------------
 # rhf/STO-3G nmr pop=nbo
 ------------------------
 1/38=1/1;
 2/12=2,17=6,18=5,40=1/2;
 3/6=3,11=1,16=1,25=1,30=1,116=1/1,2,8,3;
 4//1;
 5/5=2,38=5/2;
 8/6=1,10=90,11=11/1;
 10/13=100,45=16/2;
 6/7=2,8=2,9=2,10=2,28=1,64=1/1,7;
 99/9=1/99;
 -------
 comment
 -------
 Charge =  0 Multiplicity = 1
 Symbolic Z-Matrix:
 6                     0.30204  -3.169    -0.99566 
 6                    -0.5815   -2.17395  -0.24115 
 6                     0.70239  -0.4387    1.14338 
 6                    -1.33297   0.24371  -0.28327 
 6                    -0.28725   0.69359   0.76331 
 6                    -0.86718  -0.9439   -1.1171 
 6                     0.01273  -1.80471   1.13294 
 8                     1.83064  -0.47675   0.27958 
 6                     0.41555   2.04322   0.42756 
 6                    -0.52874   3.22472   0.69447 
 6                     0.95935   2.1603   -1.00112 
 1                     1.2906   -2.74916  -1.20751 
 1                     0.44139  -4.08499  -0.41182 
 1                    -0.15802  -3.449    -1.94934 
 1                    -1.53638  -2.68258  -0.04992 
 1                     1.08708  -0.23605   2.1503 
 1                    -1.63377   1.06627  -0.93933 
 1                    -2.2487   -0.05202   0.24715 
 1                    -0.86838   0.87427   1.68095 
 1                    -1.63732  -1.19871  -1.85546 
 1                     0.02262  -0.65889  -1.69134 
 1                     0.71309  -2.58226   1.46129 
 1                    -0.79893  -1.78696   1.87218 
 1                     2.41659  -1.18788   0.58998 
 1                     1.26329   2.15859   1.11628 
 1                    -1.40413   3.20161   0.03776 
 1                    -0.88125   3.21577   1.73131 
 1                    -0.01227   4.17702   0.53171 
 1                     1.50754   3.10212  -1.11913 
 1                     0.15874   2.15893  -1.74708 
 1                     1.65315   1.3554   -1.2509 
 
                          Input orientation:                          
 ---------------------------------------------------------------------
 Center     Atomic      Atomic             Coordinates (Angstroms)
 Number     Number       Type             X           Y           Z
 ---------------------------------------------------------------------
      1          6           0        0.302040   -3.169003   -0.995664
      2          6           0       -0.581503   -2.173952   -0.241154
      3          6           0        0.702385   -0.438699    1.143375
      4          6           0       -1.332972    0.243712   -0.283268
      5          6           0       -0.287247    0.693585    0.763306
      6          6           0       -0.867177   -0.943896   -1.117102
      7          6           0        0.012731   -1.804715    1.132939
      8          8           0        1.830645   -0.476748    0.279575
      9          6           0        0.415550    2.043221    0.427561
     10          6           0       -0.528740    3.224725    0.694475
     11          6           0        0.959347    2.160300   -1.001124
     12          1           0        1.290597   -2.749160   -1.207513
     13          1           0        0.441388   -4.084994   -0.411824
     14          1           0       -0.158018   -3.449000   -1.949341
     15          1           0       -1.536382   -2.682581   -0.049916
     16          1           0        1.087082   -0.236046    2.150301
     17          1           0       -1.633768    1.066271   -0.939327
     18          1           0       -2.248702   -0.052021    0.247151
     19          1           0       -0.868377    0.874271    1.680948
     20          1           0       -1.637318   -1.198713   -1.855464
     21          1           0        0.022624   -0.658893   -1.691336
     22          1           0        0.713087   -2.582259    1.461285
     23          1           0       -0.798928   -1.786964    1.872183
     24          1           0        2.416592   -1.187883    0.589980
     25          1           0        1.263294    2.158586    1.116280
     26          1           0       -1.404135    3.201605    0.037760
     27          1           0       -0.881245    3.215774    1.731315
     28          1           0       -0.012274    4.177024    0.531708
     29          1           0        1.507538    3.102120   -1.119131
     30          1           0        0.158737    2.158934   -1.747083
     31          1           0        1.653149    1.355399   -1.250897
 ---------------------------------------------------------------------
                    Distance matrix (angstroms):
                    1          2          3          4          5
     1  C    0.000000
     2  C    1.529724   0.000000
     3  C    3.491464   2.564448   0.000000
     4  C    3.850635   2.532110   2.577532   0.000000
     5  C    4.284953   3.052589   1.551094   1.546365   0.000000
     6  C    2.516528   1.536858   2.797947   1.524027   2.560000
     7  C    2.544785   1.541942   1.530271   2.830655   2.543249
     8  O    3.348299   2.995015   1.421467   3.293072   2.467618
     9  C    5.404232   4.384728   2.598960   2.607842   1.558257
    10  C    6.665322   5.479407   3.890740   3.238705   2.543565
    11  C    5.369688   4.662350   3.379305   3.073004   2.611219
    12  H    1.094712   2.183912   3.348268   4.085906   4.269217
    13  H    1.095138   2.174284   3.972685   4.680018   4.974601
    14  H    1.095240   2.173244   4.400806   4.218109   4.953400
    15  H    2.123873   1.098667   3.386890   2.942621   3.690551
    16  H    4.372142   3.501245   1.096795   3.465413   2.162579
    17  H    4.657045   3.477608   3.472779   1.094302   2.202493
    18  H    4.215026   2.742369   3.108320   1.098801   2.160937
    19  H    4.988205   3.615030   2.116641   2.114615   1.101102
    20  H    2.895238   2.161442   3.878772   2.155231   3.501635
    21  H    2.619672   2.182521   2.923380   2.152903   2.819661
    22  H    2.559263   2.177379   2.167032   3.900761   3.495568
    23  H    3.368487   2.159451   2.145441   3.009121   2.764877
    24  H    3.303094   3.263692   1.950904   4.107463   3.298592
    25  H    5.810982   4.900693   2.657300   3.516542   2.162173
    26  H    6.675600   5.445285   4.348750   2.976114   2.839722
    27  H    7.042865   5.747141   4.026008   3.618806   2.766101
    28  H    7.509712   6.423102   4.710603   4.228401   3.501941
    29  H    6.387131   5.742114   4.278388   4.115539   3.544836
    30  H    5.382571   4.646469   3.924029   2.834788   2.940783
    31  H    4.728726   4.297623   3.139312   3.330026   2.874047
                    6          7          8          9         10
     6  C    0.000000
     7  C    2.564748   0.000000
     8  O    3.073626   2.407599   0.000000
     9  C    3.599200   3.932738   2.893896   0.000000
    10  C    4.557823   5.077470   4.409052   1.535864   0.000000
    11  C    3.603564   4.601266   3.058328   1.533155   2.494486
    12  H    2.814807   2.828893   2.768924   5.138686   6.528005
    13  H    3.475090   2.787421   3.927787   6.185487   7.456342
    14  H    2.733326   3.497611   4.213921   6.011916   7.187893
    15  H    2.147032   2.137650   4.038704   5.135292   6.038686
    16  H    3.872480   2.156380   2.027422   2.934935   4.087450
    17  H    2.158713   3.904844   3.983565   2.650003   2.923921
    18  H    2.136642   2.995102   4.101526   3.394234   3.727658
    19  H    3.336888   2.872913   3.327735   2.141470   2.571598
    20  H    1.096918   3.467053   4.135988   4.465043   5.224743
    21  H    1.096684   3.047874   2.680785   3.456232   4.591142
    22  H    3.439411   1.096761   2.660554   4.748913   5.987586
    23  H    3.106645   1.097992   3.341813   4.269918   5.155291
    24  H    3.709015   2.540439   0.972316   3.804021   5.306318
    25  H    4.376333   4.155952   2.822578   1.098322   2.127430
    26  H    4.336728   5.316970   4.904341   2.192043   1.094589
    27  H    5.041482   5.134448   4.805894   2.180902   1.095161
    28  H    5.447317   6.011930   5.011738   2.178760   1.095492
    29  H    4.691430   5.602079   3.856043   2.169322   2.729583
    30  H    3.328202   4.901669   3.721484   2.192811   2.751316
    31  H    3.414191   4.284853   2.393870   2.195898   3.469797
                   11         12         13         14         15
    11  C    0.000000
    12  H    4.924949   0.000000
    13  H    6.294382   1.771646   0.000000
    14  H    5.797574   1.771601   1.768540   0.000000
    15  H    5.530547   3.055532   2.451390   2.468826   0.000000
    16  H    3.961095   4.199057   4.668598   5.355410   4.208212
    17  H    2.815131   4.814702   5.578536   4.856505   3.854145
    18  H    4.091959   4.681586   4.892412   4.553571   2.741440
    19  H    3.491125   5.112107   5.539809   5.689841   4.011648
    20  H    4.330766   3.375858   3.838715   2.694612   2.339243
    21  H    3.049868   2.492200   3.681125   2.807827   3.036457
    22  H    5.349389   2.735664   2.416728   3.625250   2.711808
    23  H    5.189250   3.844016   3.469295   4.216299   2.245090
    24  H    3.983153   2.633710   3.646682   4.264905   4.274294
    25  H    2.139109   5.430169   6.480194   6.546998   5.712713
    26  H    2.783818   6.650105   7.530113   7.052087   5.886325
    27  H    3.459484   6.995288   7.722928   7.647843   6.196175
    28  H    2.713080   7.259091   8.328085   8.020791   7.050913
    29  H    1.096113   5.855967   7.300107   6.810323   6.623551
    30  H    1.094273   5.065731   6.391357   5.620513   5.403154
    31  H    1.091610   4.120769   5.636513   5.181737   5.284008
                   16         17         18         19         20
    16  H    0.000000
    17  H    4.317969   0.000000
    18  H    3.844905   1.742542   0.000000
    19  H    2.297154   2.736518   2.195242   0.000000
    20  H    4.939154   2.443251   2.471777   4.170701   0.000000
    21  H    4.008746   2.507059   3.047121   3.810089   1.753211
    22  H    2.473728   4.958068   4.080247   3.807477   4.294116
    23  H    2.457586   4.091759   2.784349   2.669001   3.865784
    24  H    2.260132   4.881127   4.813801   4.029108   4.734395
    25  H    2.614290   3.716401   4.239845   2.551928   5.340063
    26  H    4.741987   2.359466   3.367970   2.898894   4.795985
    27  H    3.995613   3.509841   3.840725   2.342080   5.737973
    28  H    4.827382   3.803941   4.792432   3.600256   6.102287
    29  H    4.691409   3.747641   5.091627   4.295198   5.378612
    30  H    4.667693   2.249323   3.828975   3.802199   3.809377
    31  H    3.797536   3.314286   4.410149   3.896831   4.209057
                   21         22         23         24         25
    21  H    0.000000
    22  H    3.757006   0.000000
    23  H    3.827029   1.757134   0.000000
    24  H    3.348927   2.367569   3.513191   0.000000
    25  H    4.166552   4.785119   4.515696   3.578539   0.000000
    26  H    4.464175   6.321561   5.349505   5.845554   3.060436
    27  H    5.248292   6.019302   5.005398   5.618770   2.468798
    28  H    5.322522   6.861353   6.163185   5.889399   2.458229
    29  H    4.083823   6.293001   6.178258   4.706545   2.438641
    30  H    2.821664   5.751508   5.439330   4.664864   3.069022
    31  H    2.628683   4.872863   5.063670   3.231092   2.529945
                   26         27         28         29         30
    26  H    0.000000
    27  H    1.772496   0.000000
    28  H    1.769944   1.765833   0.000000
    29  H    3.134666   3.720785   2.488075   0.000000
    30  H    2.591408   3.781233   3.048741   1.761587   0.000000
    31  H    3.796853   4.333328   3.729998   1.757725   1.767805
                   31
    31  H    0.000000
 Stoichiometry    C10H20O
 Framework group  C1[X(C10H20O)]
 Deg. of freedom    87
 Full point group                 C1      NOp   1
 Largest Abelian subgroup         C1      NOp   1
 Largest concise Abelian subgroup C1      NOp   1
                         Standard orientation:                         
 ---------------------------------------------------------------------
 Center     Atomic      Atomic             Coordinates (Angstroms)
 Number     Number       Type             X           Y           Z
 ---------------------------------------------------------------------
      1          6           0       -3.214653   -0.104884    0.740459
      2          6           0       -2.148333   -0.610662   -0.232787
      3          6           0       -0.270513    1.064217   -0.727725
      4          6           0        0.248158   -1.425002   -0.305304
      5          6           0        0.811000   -0.047637   -0.726396
      6          6           0       -1.019693   -1.318261    0.533636
      7          6           0       -1.632534    0.512560   -1.154692
      8          8           0       -0.395973    1.691404    0.541710
      9          6           0        2.119913    0.362777    0.012841
     10          6           0        3.319453   -0.423536   -0.536427
     11          6           0        2.086261    0.208282    1.537821
     12          1           0       -2.815931    0.663673    1.410336
     13          1           0       -4.062699    0.325992    0.197789
     14          1           0       -3.596420   -0.925837    1.356772
     15          1           0       -2.637400   -1.353719   -0.877574
     16          1           0        0.039730    1.845383   -1.432345
     17          1           0        0.994986   -2.027594    0.220651
     18          1           0        0.007053   -1.993199   -1.214361
     19          1           0        1.086143   -0.168843   -1.785656
     20          1           0       -1.354691   -2.322154    0.822088
     21          1           0       -0.794024   -0.792178    1.469064
     22          1           0       -2.367958    1.324582   -1.206222
     23          1           0       -1.539294    0.114222   -2.173623
     24          1           0       -1.067722    2.389735    0.461177
     25          1           0        2.311268    1.421140   -0.209788
     26          1           0        3.223120   -1.497121   -0.346004
     27          1           0        3.419623   -0.277605   -1.617189
     28          1           0        4.250995   -0.082604   -0.071562
     29          1           0        3.012274    0.598015    1.976082
     30          1           0        2.002342   -0.839186    1.843110
     31          1           0        1.262033    0.758938    1.995029
 ---------------------------------------------------------------------
 Rotational constants (GHZ):      1.9216584      0.7165267      0.6787871
 Standard basis: STO-3G (5D, 7F)
 There are    75 symmetry adapted basis functions of A   symmetry.
 Integral buffers will be    131072 words long.
 Raffenetti 1 integral format.
 Two-electron integral symmetry is turned on.
    75 basis functions,   225 primitive gaussians,    75 cartesian basis functions
    44 alpha electrons       44 beta electrons
       nuclear repulsion energy       703.2619106981 Hartrees.
 NAtoms=   31 NActive=   31 NUniq=   31 SFac= 1.00D+00 NAtFMM=   60 NAOKFM=F Big=F
 One-electron integrals computed using PRISM.
 NBasis=    75 RedAO= T  NBF=    75
 NBsUse=    75 1.00D-06 NBFU=    75
 Harris functional with IExCor=  205 diagonalized for initial guess.
 ExpMin= 1.69D-01 ExpMax= 1.31D+02 ExpMxC= 1.31D+02 IAcc=1 IRadAn=         1 AccDes= 0.00D+00
 HarFok:  IExCor=  205 AccDes= 0.00D+00 IRadAn=         1 IDoV= 1
 ScaDFX=  1.000000  1.000000  1.000000  1.000000
 FoFCou: FMM=F IPFlag=           0 FMFlag=      100000 FMFlg1=           0
         NFxFlg=           0 DoJE=T BraDBF=F KetDBF=T FulRan=T
         Omega=  0.000000  0.000000  1.000000  0.000000  0.000000 ICntrl=     500 IOpCl=  0
         NMat0=    1 NMatS0=    1 NMatT0=    0 NMatD0=    1 NMtDS0=    0 NMtDT0=    0
         I1Cent=           4 NGrid=           0.
 Petite list used in FoFCou.
 Initial guess orbital symmetries:
       Occupied  (A) (A) (A) (A) (A) (A) (A) (A) (A) (A) (A) (A)
                 (A) (A) (A) (A) (A) (A) (A) (A) (A) (A) (A) (A)
                 (A) (A) (A) (A) (A) (A) (A) (A) (A) (A) (A) (A)
                 (A) (A) (A) (A) (A) (A) (A) (A)
       Virtual   (A) (A) (A) (A) (A) (A) (A) (A) (A) (A) (A) (A)
                 (A) (A) (A) (A) (A) (A) (A) (A) (A) (A) (A) (A)
                 (A) (A) (A) (A) (A) (A) (A)
 The electronic state of the initial guess is 1-A.
 Requested convergence on RMS density matrix=1.00D-08 within 128 cycles.
 Requested convergence on MAX density matrix=1.00D-06.
 Requested convergence on             energy=1.00D-06.
 No special actions if energy rises.
 Keep R1 ints in memory in canonical form, NReq=4898789.
 SCF Done:  E(RHF) =  -459.609386181     A.U. after   10 cycles
             Convg  =    0.7523D-08             -V/T =  2.0089
 Range of M.O.s used for correlation:     1    75
 NBasis=    75 NAE=    44 NBE=    44 NFC=     0 NFV=     0
 NROrb=     75 NOA=    44 NOB=    44 NVA=    31 NVB=    31
          Differentiating once with respect to magnetic field using GIAOs.
          Electric field/nuclear overlap derivatives assumed to be zero.
          Keep R3 ints in memory in canonical form, NReq=4863575.
 FoFCou: FMM=F IPFlag=           0 FMFlag=           0 FMFlg1=           0
         NFxFlg=           0 DoJE=F BraDBF=F KetDBF=T FulRan=T
         Omega=  0.000000  0.000000  1.000000  0.000000  0.000000 ICntrl=    6100 IOpCl=  0
         NMat0=    1 NMatS0=    1 NMatT0=    0 NMatD0=    1 NMtDS0=    0 NMtDT0=    0
         I1Cent=           7 NGrid=          31.
 Symmetry not used in FoFCou.
          There are     3 degrees of freedom in the 1st order CPHF.  IDoFFX=0.
      3 vectors produced by pass  0 Test12= 4.55D-14 3.33D-08 XBig12= 6.58D+00 3.82D-01.
 AX will form     3 AO Fock derivatives at one time.
      3 vectors produced by pass  1 Test12= 4.55D-14 3.33D-08 XBig12= 8.97D-03 1.81D-02.
      3 vectors produced by pass  2 Test12= 4.55D-14 3.33D-08 XBig12= 7.90D-05 3.53D-03.
      3 vectors produced by pass  3 Test12= 4.55D-14 3.33D-08 XBig12= 2.10D-06 4.10D-04.
      3 vectors produced by pass  4 Test12= 4.55D-14 3.33D-08 XBig12= 2.14D-08 3.55D-05.
      3 vectors produced by pass  5 Test12= 4.55D-14 3.33D-08 XBig12= 2.47D-10 2.77D-06.
      3 vectors produced by pass  6 Test12= 4.55D-14 3.33D-08 XBig12= 2.25D-12 2.14D-07.
 Inverted reduced A of dimension    21 with in-core refinement.
 Calculating GIAO nuclear magnetic shielding tensors.
 SCF GIAO Magnetic shielding tensor (ppm):
      1  C    Isotropic =   220.0831   Anisotropy =    27.5916
   XX=   228.2041   YX=    -6.3792   ZX=   -10.0042
   XY=    -6.6451   YY=   211.6896   ZY=     2.9264
   XZ=   -14.3023   YZ=     0.0899   ZZ=   220.3556
   Eigenvalues:   208.2675   213.5043   238.4775
      2  C    Isotropic =   216.0949   Anisotropy =     7.8518
   XX=   220.7914   YX=    -0.5002   ZX=    -2.5143
   XY=    -2.1209   YY=   214.6839   ZY=    -4.5244
   XZ=    -1.7520   YZ=    -4.9442   ZZ=   212.8093
   Eigenvalues:   208.4226   218.5326   221.3294
      3  C    Isotropic =   187.5299   Anisotropy =    33.3965
   XX=   181.5821   YX=    -5.8342   ZX=     0.9392
   XY=    -6.9479   YY=   180.2761   ZY=    15.3681
   XZ=    -5.5073   YZ=    15.1694   ZZ=   200.7314
   Eigenvalues:   170.1880   182.6074   209.7942
      4  C    Isotropic =   219.7243   Anisotropy =    13.3483
   XX=   222.7393   YX=     4.3280   ZX=    -5.2470
   XY=     4.4988   YY=   222.3430   ZY=    -2.0521
   XZ=    -4.0349   YZ=    -2.3501   ZZ=   214.0905
   Eigenvalues:   212.0636   218.4861   228.6232
      5  C    Isotropic =   209.9631   Anisotropy =    18.9917
   XX=   221.8342   YX=    -1.7524   ZX=     3.6810
   XY=     0.3249   YY=   205.8671   ZY=     2.1649
   XZ=     4.3106   YZ=     1.2291   ZZ=   202.1881
   Eigenvalues:   200.7685   206.4966   222.6242
      6  C    Isotropic =   217.4706   Anisotropy =    17.2489
   XX=   225.7701   YX=    -6.0448   ZX=    -2.2924
   XY=    -8.1268   YY=   213.1636   ZY=    -1.9712
   XZ=     1.4986   YZ=    -2.4526   ZZ=   213.4780
   Eigenvalues:   208.9336   214.5082   228.9698
      7  C    Isotropic =   214.9598   Anisotropy =    12.1313
   XX=   220.0629   YX=     4.0640   ZX=     0.8170
   XY=     1.7803   YY=   217.2978   ZY=    -4.5400
   XZ=    -2.5064   YZ=    -7.0972   ZZ=   207.5189
   Eigenvalues:   204.7932   217.0390   223.0474
      8  O    Isotropic =   357.6415   Anisotropy =    99.7275
   XX=   379.9379   YX=   -46.5028   ZX=    -1.6730
   XY=   -42.0710   YY=   377.4569   ZY=     0.1700
   XZ=    23.3491   YZ=    -9.5579   ZZ=   315.5298
   Eigenvalues:   313.5722   335.2259   424.1265
      9  C    Isotropic =   213.3487   Anisotropy =    15.7503
   XX=   222.7129   YX=     3.1804   ZX=     1.6553
   XY=     1.7174   YY=   205.5428   ZY=     2.6243
   XZ=     3.6299   YZ=     3.5326   ZZ=   211.7903
   Eigenvalues:   204.1882   212.0089   223.8488
     10  C    Isotropic =   220.1810   Anisotropy =    28.7104
   XX=   231.0969   YX=    -8.1999   ZX=    -8.4086
   XY=   -12.6336   YY=   209.9440   ZY=     6.7664
   XZ=    -5.5245   YZ=     5.6027   ZZ=   219.5020
   Eigenvalues:   204.8894   216.3322   239.3212
     11  C    Isotropic =   223.3466   Anisotropy =    22.0048
   XX=   219.0296   YX=    -0.9167   ZX=     1.0938
   XY=    -0.0105   YY=   213.0053   ZY=    -1.0685
   XZ=    -0.2502   YZ=     1.5653   ZZ=   238.0048
   Eigenvalues:   212.9667   219.0565   238.0165
     12  H    Isotropic =    32.5185   Anisotropy =     9.0799
   XX=    31.6969   YX=     1.0361   ZX=    -1.8737
   XY=     0.4947   YY=    32.4791   ZY=     5.5641
   XZ=    -1.7287   YZ=     5.4873   ZZ=    33.3794
   Eigenvalues:    26.7367    32.2470    38.5718
     13  H    Isotropic =    32.5883   Anisotropy =    14.0113
   XX=    40.0401   YX=    -4.3431   ZX=     1.8415
   XY=    -4.5382   YY=    28.7251   ZY=    -1.8343
   XZ=     1.5668   YZ=    -1.3803   ZZ=    28.9999
   Eigenvalues:    26.7207    29.1152    41.9292
     14  H    Isotropic =    32.3952   Anisotropy =    14.0296
   XX=    33.6158   YX=     3.2686   ZX=    -5.6896
   XY=     3.0645   YY=    31.6127   ZY=    -4.6890
   XZ=    -5.8117   YZ=    -5.1107   ZZ=    31.9572
   Eigenvalues:    26.0931    29.3443    41.7483
     15  H    Isotropic =    32.4150   Anisotropy =    14.0020
   XX=    32.5119   YX=     5.1934   ZX=     3.7288
   XY=     5.1978   YY=    33.3644   ZY=     4.7769
   XZ=     3.6528   YZ=     5.0222   ZZ=    31.3687
   Eigenvalues:    27.2252    28.2702    41.7497
     16  H    Isotropic =    31.8313   Anisotropy =    11.5432
   XX=    29.8290   YX=     1.1603   ZX=    -1.1045
   XY=     1.3078   YY=    33.8338   ZY=    -5.6355
   XZ=    -2.3863   YZ=    -6.7053   ZZ=    31.8312
   Eigenvalues:    26.4879    29.4793    39.5268
     17  H    Isotropic =    32.3950   Anisotropy =    11.6527
   XX=    35.4795   YX=    -3.4931   ZX=     2.5632
   XY=    -3.6899   YY=    34.8707   ZY=    -3.1667
   XZ=     3.1264   YZ=    -3.3252   ZZ=    26.8347
   Eigenvalues:    25.4212    31.6003    40.1635
     18  H    Isotropic =    32.5706   Anisotropy =    13.4753
   XX=    29.2015   YX=     0.9544   ZX=     0.0555
   XY=     0.8625   YY=    34.5476   ZY=     7.0710
   XZ=    -0.1492   YZ=     7.4522   ZZ=    33.9625
   Eigenvalues:    26.8023    29.3553    41.5541
     19  H    Isotropic =    32.4085   Anisotropy =    11.6784
   XX=    31.9952   YX=    -0.6303   ZX=    -2.9420
   XY=    -0.6499   YY=    26.4411   ZY=     1.1157
   XZ=    -3.5460   YZ=     0.9573   ZZ=    38.7891
   Eigenvalues:    26.3265    30.7049    40.1940
     20  H    Isotropic =    32.4084   Anisotropy =    14.6533
   XX=    30.7629   YX=     2.7218   ZX=    -1.8988
   XY=     2.6422   YY=    38.8895   ZY=    -5.9124
   XZ=    -1.8374   YZ=    -5.5384   ZZ=    27.5727
   Eigenvalues:    25.0870    29.9609    42.1772
     21  H    Isotropic =    32.4328   Anisotropy =     7.9601
   XX=    31.9320   YX=     0.7681   ZX=     0.9695
   XY=     0.7126   YY=    28.0886   ZY=     1.7183
   XZ=     0.9767   YZ=     1.4126   ZZ=    37.2778
   Eigenvalues:    27.7489    31.8100    37.7395
     22  H    Isotropic =    32.9088   Anisotropy =    12.7278
   XX=    35.3754   YX=    -4.9061   ZX=     1.6860
   XY=    -5.6166   YY=    34.5700   ZY=    -3.9973
   XZ=     1.6980   YZ=    -3.4374   ZZ=    28.7812
   Eigenvalues:    26.8484    30.4840    41.3941
     23  H    Isotropic =    32.3254   Anisotropy =    13.0116
   XX=    29.0582   YX=     0.5285   ZX=     1.5654
   XY=     0.6516   YY=    27.4344   ZY=     1.7796
   XZ=     1.9879   YZ=     1.7384   ZZ=    40.4835
   Eigenvalues:    27.1279    28.8484    40.9997
     24  H    Isotropic =    35.2601   Anisotropy =    18.9153
   XX=    34.6970   YX=    -9.2157   ZX=    -0.4180
   XY=    -8.5899   YY=    40.8725   ZY=     4.6169
   XZ=     0.1258   YZ=     3.5098   ZZ=    30.2109
   Eigenvalues:    26.6778    31.2323    47.8703
     25  H    Isotropic =    32.1388   Anisotropy =    11.1738
   XX=    32.0114   YX=     2.9289   ZX=    -0.1169
   XY=     2.8127   YY=    38.0631   ZY=    -2.4457
   XZ=    -0.1451   YZ=    -2.2672   ZZ=    26.3418
   Eigenvalues:    25.8543    30.9740    39.5879
     26  H    Isotropic =    32.4530   Anisotropy =    10.0879
   XX=    32.4564   YX=    -2.9310   ZX=    -1.0450
   XY=    -2.9039   YY=    37.9012   ZY=    -0.1535
   XZ=    -1.1698   YZ=    -0.0867   ZZ=    27.0015
   Eigenvalues:    26.7385    31.4423    39.1783
     27  H    Isotropic =    32.5547   Anisotropy =    13.1499
   XX=    32.4979   YX=    -0.8707   ZX=    -4.8601
   XY=    -0.7601   YY=    26.4655   ZY=     0.1538
   XZ=    -4.7461   YZ=    -0.4449   ZZ=    38.7007
   Eigenvalues:    26.2891    30.0536    41.3213
     28  H    Isotropic =    32.4049   Anisotropy =    14.4962
   XX=    41.5320   YX=     1.6342   ZX=     2.1481
   XY=     1.2350   YY=    26.9108   ZY=     1.3047
   XZ=     2.1728   YZ=     1.5965   ZZ=    28.7717
   Eigenvalues:    26.1143    29.0313    42.0690
     29  H    Isotropic =    32.5477   Anisotropy =    14.8904
   XX=    35.9005   YX=     3.3380   ZX=     5.9802
   XY=     3.1818   YY=    27.6877   ZY=     3.0399
   XZ=     6.1556   YZ=     3.1293   ZZ=    34.0548
   Eigenvalues:    26.3120    28.8564    42.4746
     30  H    Isotropic =    32.6913   Anisotropy =     9.2250
   XX=    29.6129   YX=     0.5547   ZX=     1.8109
   XY=     0.6000   YY=    35.1083   ZY=    -4.3638
   XZ=     1.9607   YZ=    -4.5593   ZZ=    33.3527
   Eigenvalues:    27.7982    31.4344    38.8413
     31  H    Isotropic =    31.9158   Anisotropy =     9.9233
   XX=    33.8885   YX=    -4.2154   ZX=    -1.4357
   XY=    -4.0418   YY=    27.8041   ZY=     3.9039
   XZ=    -1.4794   YZ=     4.1541   ZZ=    34.0549
   Eigenvalues:    24.7009    32.5152    38.5313
 End of Minotr Frequency-dependent properties file   721 does not exist.
 End of Minotr Frequency-dependent properties file   722 does not exist.

 **********************************************************************

            Population analysis using the SCF density.

 **********************************************************************

 Orbital symmetries:
       Occupied  (A) (A) (A) (A) (A) (A) (A) (A) (A) (A) (A) (A)
                 (A) (A) (A) (A) (A) (A) (A) (A) (A) (A) (A) (A)
                 (A) (A) (A) (A) (A) (A) (A) (A) (A) (A) (A) (A)
                 (A) (A) (A) (A) (A) (A) (A) (A)
       Virtual   (A) (A) (A) (A) (A) (A) (A) (A) (A) (A) (A) (A)
                 (A) (A) (A) (A) (A) (A) (A) (A) (A) (A) (A) (A)
                 (A) (A) (A) (A) (A) (A) (A)
 The electronic state is 1-A.
 Alpha  occ. eigenvalues --  -20.23711 -11.08610 -11.04328 -11.04166 -11.04133
 Alpha  occ. eigenvalues --  -11.03700 -11.03142 -11.02959 -11.02852 -11.02546
 Alpha  occ. eigenvalues --  -11.01749  -1.28046  -1.07473  -1.03109  -0.96285
 Alpha  occ. eigenvalues --   -0.95074  -0.88051  -0.87622  -0.80140  -0.77769
 Alpha  occ. eigenvalues --   -0.72307  -0.67247  -0.64097  -0.60996  -0.59085
 Alpha  occ. eigenvalues --   -0.57229  -0.54556  -0.53855  -0.52843  -0.52489
 Alpha  occ. eigenvalues --   -0.51345  -0.49827  -0.49229  -0.47669  -0.46411
 Alpha  occ. eigenvalues --   -0.45068  -0.42823  -0.42549  -0.42050  -0.40515
 Alpha  occ. eigenvalues --   -0.39223  -0.38743  -0.35791  -0.32903
 Alpha virt. eigenvalues --    0.52281   0.55905   0.58316   0.59735   0.60222
 Alpha virt. eigenvalues --    0.61542   0.61836   0.65169   0.66265   0.66736
 Alpha virt. eigenvalues --    0.68569   0.69648   0.71301   0.71835   0.71944
 Alpha virt. eigenvalues --    0.72525   0.74300   0.74679   0.75165   0.76591
 Alpha virt. eigenvalues --    0.76975   0.78066   0.79118   0.79874   0.80353
 Alpha virt. eigenvalues --    0.80988   0.81986   0.83866   0.85995   0.86740
 Alpha virt. eigenvalues --    0.87463
          Condensed to atoms (all electrons):
              1          2          3          4          5          6
     1  C    4.742489   0.365182   0.000287   0.000745   0.000010  -0.024487
     2  C    0.365182   4.745030  -0.020534  -0.022171  -0.003264   0.363089
     3  C    0.000287  -0.020534   4.740371  -0.021214   0.355925  -0.007666
     4  C    0.000745  -0.022171  -0.021214   4.756946   0.358365   0.363265
     5  C    0.000010  -0.003264   0.355925   0.358365   4.776842  -0.021025
     6  C   -0.024487   0.363089  -0.007666   0.363265  -0.021025   4.754252
     7  C   -0.023624   0.359275   0.357785  -0.006146  -0.022296  -0.021546
     8  O   -0.000214  -0.000293   0.267232   0.000054  -0.015545  -0.000240
     9  C    0.000000   0.000003  -0.019503  -0.019554   0.357928   0.000293
    10  C    0.000000   0.000000   0.000654  -0.000884  -0.023218   0.000004
    11  C    0.000000   0.000002  -0.000155  -0.002780  -0.019300  -0.000155
    12  H    0.382243  -0.020500   0.000094   0.000011   0.000006  -0.002271
    13  H    0.382097  -0.020381   0.000011  -0.000018  -0.000001   0.001291
    14  H    0.382295  -0.020043  -0.000017   0.000014   0.000000  -0.002202
    15  H   -0.025468   0.383169   0.001215  -0.000474   0.000030  -0.024011
    16  H   -0.000016   0.001173   0.376509   0.001142  -0.024107   0.000054
    17  H   -0.000016   0.001255   0.000951   0.383122  -0.019741  -0.021048
    18  H    0.000009  -0.002595   0.000626   0.382159  -0.022712  -0.024300
    19  H    0.000000   0.000067  -0.024241  -0.026161   0.381084   0.001307
    20  H   -0.000418  -0.021726   0.000054  -0.021383   0.001205   0.382607
    21  H   -0.004433  -0.021530   0.000061  -0.022870  -0.001960   0.382180
    22  H   -0.005833  -0.021591  -0.021661   0.000040   0.001118   0.001043
    23  H    0.001270  -0.021725  -0.021255  -0.000057  -0.001672   0.000545
    24  H   -0.000156   0.000007  -0.041114  -0.000025   0.002353   0.000035
    25  H    0.000000   0.000000  -0.003536   0.001052  -0.023170  -0.000016
    26  H    0.000000   0.000000   0.000000  -0.000354  -0.001619   0.000004
    27  H    0.000000   0.000000   0.000027   0.000041  -0.002538  -0.000001
    28  H    0.000000   0.000000  -0.000015   0.000000   0.001194   0.000000
    29  H    0.000000   0.000000  -0.000005   0.000025   0.001091   0.000005
    30  H    0.000000   0.000000  -0.000003  -0.000750  -0.001283  -0.000162
    31  H    0.000000   0.000002  -0.000069   0.000051  -0.001539  -0.000176
              7          8          9         10         11         12
     1  C   -0.023624  -0.000214   0.000000   0.000000   0.000000   0.382243
     2  C    0.359275  -0.000293   0.000003   0.000000   0.000002  -0.020500
     3  C    0.357785   0.267232  -0.019503   0.000654  -0.000155   0.000094
     4  C   -0.006146   0.000054  -0.019554  -0.000884  -0.002780   0.000011
     5  C   -0.022296  -0.015545   0.357928  -0.023218  -0.019300   0.000006
     6  C   -0.021546  -0.000240   0.000293   0.000004  -0.000155  -0.002271
     7  C    4.787009  -0.020277   0.000567  -0.000004  -0.000007  -0.001825
     8  O   -0.020277   7.849784  -0.000703   0.000000  -0.001198   0.000062
     9  C    0.000567  -0.000703   4.732638   0.364124   0.364642   0.000000
    10  C   -0.000004   0.000000   0.364124   4.746324  -0.026943   0.000000
    11  C   -0.000007  -0.001198   0.364642  -0.026943   4.744169   0.000000
    12  H   -0.001825   0.000062   0.000000   0.000000   0.000000   0.627781
    13  H   -0.002360   0.000005   0.000000   0.000000   0.000000  -0.022014
    14  H    0.001269   0.000003   0.000000   0.000000   0.000000  -0.021546
    15  H   -0.025127  -0.000006   0.000000   0.000000   0.000000   0.001949
    16  H   -0.025994  -0.020442  -0.000664   0.000001  -0.000005  -0.000004
    17  H    0.000043  -0.000008  -0.004457  -0.000435  -0.000842  -0.000001
    18  H   -0.000084  -0.000005   0.001148   0.000014   0.000025   0.000000
    19  H   -0.000599   0.000558  -0.023423  -0.005141   0.001135   0.000000
    20  H    0.001162   0.000005  -0.000011   0.000000   0.000003   0.000013
    21  H   -0.000171  -0.000058   0.000104   0.000001  -0.000240   0.000326
    22  H    0.381610  -0.001304  -0.000013   0.000000   0.000000   0.000054
    23  H    0.380019   0.000657   0.000012   0.000000   0.000000   0.000001
    24  H   -0.003169   0.258654   0.000030   0.000000   0.000067  -0.000183
    25  H    0.000024   0.000106   0.381413  -0.024731  -0.023946   0.000000
    26  H    0.000000   0.000000  -0.020206   0.382027  -0.002200   0.000000
    27  H    0.000000   0.000000  -0.020182   0.381966   0.001326   0.000000
    28  H    0.000000   0.000000  -0.019696   0.382457  -0.002429   0.000000
    29  H    0.000000   0.000017  -0.020195  -0.002453   0.381542   0.000000
    30  H    0.000000   0.000019  -0.020302  -0.002555   0.381950   0.000000
    31  H   -0.000002   0.000686  -0.018829   0.001313   0.382882   0.000000
             13         14         15         16         17         18
     1  C    0.382097   0.382295  -0.025468  -0.000016  -0.000016   0.000009
     2  C   -0.020381  -0.020043   0.383169   0.001173   0.001255  -0.002595
     3  C    0.000011  -0.000017   0.001215   0.376509   0.000951   0.000626
     4  C   -0.000018   0.000014  -0.000474   0.001142   0.383122   0.382159
     5  C   -0.000001   0.000000   0.000030  -0.024107  -0.019741  -0.022712
     6  C    0.001291  -0.002202  -0.024011   0.000054  -0.021048  -0.024300
     7  C   -0.002360   0.001269  -0.025127  -0.025994   0.000043  -0.000084
     8  O    0.000005   0.000003  -0.000006  -0.020442  -0.000008  -0.000005
     9  C    0.000000   0.000000   0.000000  -0.000664  -0.004457   0.001148
    10  C    0.000000   0.000000   0.000000   0.000001  -0.000435   0.000014
    11  C    0.000000   0.000000   0.000000  -0.000005  -0.000842   0.000025
    12  H   -0.022014  -0.021546   0.001949  -0.000004  -0.000001   0.000000
    13  H    0.635788  -0.021780  -0.002585  -0.000001   0.000000   0.000000
    14  H   -0.021780   0.630372  -0.002343   0.000001  -0.000001   0.000000
    15  H   -0.002585  -0.002343   0.657138  -0.000035  -0.000015   0.000361
    16  H   -0.000001   0.000001  -0.000035   0.665825  -0.000024  -0.000026
    17  H    0.000000  -0.000001  -0.000015  -0.000024   0.636658  -0.024683
    18  H    0.000000   0.000000   0.000361  -0.000026  -0.024683   0.654194
    19  H    0.000000   0.000000   0.000001  -0.004936   0.000932  -0.008039
    20  H   -0.000016   0.000167  -0.005050   0.000001  -0.002436  -0.002339
    21  H    0.000054  -0.000076   0.001867   0.000001  -0.002122   0.002051
    22  H    0.000074   0.000083   0.000830  -0.002142   0.000001   0.000004
    23  H    0.000056  -0.000037  -0.007105  -0.001938   0.000005  -0.000226
    24  H    0.000006   0.000002  -0.000002  -0.003438   0.000002   0.000001
    25  H    0.000000   0.000000   0.000000   0.000209   0.000049  -0.000029
    26  H    0.000000   0.000000   0.000000  -0.000001  -0.000147  -0.000055
    27  H    0.000000   0.000000   0.000000   0.000006   0.000024  -0.000003
    28  H    0.000000   0.000000   0.000000   0.000000  -0.000016   0.000001
    29  H    0.000000   0.000000   0.000000   0.000000  -0.000013   0.000000
    30  H    0.000000   0.000000   0.000000  -0.000001  -0.000619   0.000010
    31  H    0.000000   0.000000   0.000000   0.000016   0.000037  -0.000003
             19         20         21         22         23         24
     1  C    0.000000  -0.000418  -0.004433  -0.005833   0.001270  -0.000156
     2  C    0.000067  -0.021726  -0.021530  -0.021591  -0.021725   0.000007
     3  C   -0.024241   0.000054   0.000061  -0.021661  -0.021255  -0.041114
     4  C   -0.026161  -0.021383  -0.022870   0.000040  -0.000057  -0.000025
     5  C    0.381084   0.001205  -0.001960   0.001118  -0.001672   0.002353
     6  C    0.001307   0.382607   0.382180   0.001043   0.000545   0.000035
     7  C   -0.000599   0.001162  -0.000171   0.381610   0.380019  -0.003169
     8  O    0.000558   0.000005  -0.000058  -0.001304   0.000657   0.258654
     9  C   -0.023423  -0.000011   0.000104  -0.000013   0.000012   0.000030
    10  C   -0.005141   0.000000   0.000001   0.000000   0.000000   0.000000
    11  C    0.001135   0.000003  -0.000240   0.000000   0.000000   0.000067
    12  H    0.000000   0.000013   0.000326   0.000054   0.000001  -0.000183
    13  H    0.000000  -0.000016   0.000054   0.000074   0.000056   0.000006
    14  H    0.000000   0.000167  -0.000076   0.000083  -0.000037   0.000002
    15  H    0.000001  -0.005050   0.001867   0.000830  -0.007105  -0.000002
    16  H   -0.004936   0.000001   0.000001  -0.002142  -0.001938  -0.003438
    17  H    0.000932  -0.002436  -0.002122   0.000001   0.000005   0.000002
    18  H   -0.008039  -0.002339   0.002051   0.000004  -0.000226   0.000001
    19  H    0.660945  -0.000039   0.000003   0.000000   0.000049  -0.000076
    20  H   -0.000039   0.643890  -0.023901  -0.000025  -0.000027  -0.000001
    21  H    0.000003  -0.023901   0.632005  -0.000012  -0.000021   0.000013
    22  H    0.000000  -0.000025  -0.000012   0.643471  -0.022920   0.000542
    23  H    0.000049  -0.000027  -0.000021  -0.022920   0.643260  -0.000003
    24  H   -0.000076  -0.000001   0.000013   0.000542  -0.000003   0.608999
    25  H   -0.000734   0.000001  -0.000007  -0.000001   0.000000  -0.000043
    26  H   -0.000004   0.000000   0.000000   0.000000   0.000000   0.000000
    27  H    0.000060   0.000000   0.000000   0.000000   0.000000   0.000000
    28  H    0.000079   0.000000   0.000000   0.000000   0.000000   0.000000
    29  H   -0.000031   0.000000   0.000004   0.000000   0.000000  -0.000001
    30  H    0.000002   0.000013  -0.000088   0.000000   0.000000  -0.000002
    31  H    0.000006   0.000003  -0.000163   0.000001   0.000000  -0.000022
             25         26         27         28         29         30
     1  C    0.000000   0.000000   0.000000   0.000000   0.000000   0.000000
     2  C    0.000000   0.000000   0.000000   0.000000   0.000000   0.000000
     3  C   -0.003536   0.000000   0.000027  -0.000015  -0.000005  -0.000003
     4  C    0.001052  -0.000354   0.000041   0.000000   0.000025  -0.000750
     5  C   -0.023170  -0.001619  -0.002538   0.001194   0.001091  -0.001283
     6  C   -0.000016   0.000004  -0.000001   0.000000   0.000005  -0.000162
     7  C    0.000024   0.000000   0.000000   0.000000   0.000000   0.000000
     8  O    0.000106   0.000000   0.000000   0.000000   0.000017   0.000019
     9  C    0.381413  -0.020206  -0.020182  -0.019696  -0.020195  -0.020302
    10  C   -0.024731   0.382027   0.381966   0.382457  -0.002453  -0.002555
    11  C   -0.023946  -0.002200   0.001326  -0.002429   0.381542   0.381950
    12  H    0.000000   0.000000   0.000000   0.000000   0.000000   0.000000
    13  H    0.000000   0.000000   0.000000   0.000000   0.000000   0.000000
    14  H    0.000000   0.000000   0.000000   0.000000   0.000000   0.000000
    15  H    0.000000   0.000000   0.000000   0.000000   0.000000   0.000000
    16  H    0.000209  -0.000001   0.000006   0.000000   0.000000  -0.000001
    17  H    0.000049  -0.000147   0.000024  -0.000016  -0.000013  -0.000619
    18  H   -0.000029  -0.000055  -0.000003   0.000001   0.000000   0.000010
    19  H   -0.000734  -0.000004   0.000060   0.000079  -0.000031   0.000002
    20  H    0.000001   0.000000   0.000000   0.000000   0.000000   0.000013
    21  H   -0.000007   0.000000   0.000000   0.000000   0.000004  -0.000088
    22  H   -0.000001   0.000000   0.000000   0.000000   0.000000   0.000000
    23  H    0.000000   0.000000   0.000000   0.000000   0.000000   0.000000
    24  H   -0.000043   0.000000   0.000000   0.000000  -0.000001  -0.000002
    25  H    0.649076   0.001910  -0.002310  -0.002470  -0.002805   0.001868
    26  H    0.001910   0.632248  -0.021903  -0.021858  -0.000001   0.000317
    27  H   -0.002310  -0.021903   0.635529  -0.021961   0.000031   0.000017
    28  H   -0.002470  -0.021858  -0.021961   0.631348   0.000040  -0.000017
    29  H   -0.002805  -0.000001   0.000031   0.000040   0.636620  -0.022390
    30  H    0.001868   0.000317   0.000017  -0.000017  -0.022390   0.636070
    31  H   -0.001792   0.000010  -0.000037   0.000031  -0.021767  -0.021737
             31
     1  C    0.000000
     2  C    0.000002
     3  C   -0.000069
     4  C    0.000051
     5  C   -0.001539
     6  C   -0.000176
     7  C   -0.000002
     8  O    0.000686
     9  C   -0.018829
    10  C    0.001313
    11  C    0.382882
    12  H    0.000000
    13  H    0.000000
    14  H    0.000000
    15  H    0.000000
    16  H    0.000016
    17  H    0.000037
    18  H   -0.000003
    19  H    0.000006
    20  H    0.000003
    21  H   -0.000163
    22  H    0.000001
    23  H    0.000000
    24  H   -0.000022
    25  H   -0.001792
    26  H    0.000010
    27  H   -0.000037
    28  H    0.000031
    29  H   -0.021767
    30  H   -0.021737
    31  H    0.609581
 Mulliken atomic charges:
              1
     1  C   -0.171963
     2  C   -0.021901
     3  C    0.079184
     4  C   -0.102192
     5  C   -0.032160
     6  C   -0.100673
     7  C   -0.115533
     8  O   -0.317550
     9  C   -0.015165
    10  C   -0.172523
    11  C   -0.177544
    12  H    0.055802
    13  H    0.049771
    14  H    0.053839
    15  H    0.045660
    16  H    0.038834
    17  H    0.053543
    18  H    0.044496
    19  H    0.047198
    20  H    0.048248
    21  H    0.058983
    22  H    0.046633
    23  H    0.051112
    24  H    0.177524
    25  H    0.049883
    26  H    0.051833
    27  H    0.049906
    28  H    0.053312
    29  H    0.050286
    30  H    0.049642
    31  H    0.071516
 Sum of Mulliken atomic charges =   0.00000
 Mulliken charges with hydrogens summed into heavy atoms:
              1
     1  C   -0.012551
     2  C    0.023759
     3  C    0.118018
     4  C   -0.004153
     5  C    0.015038
     6  C    0.006558
     7  C   -0.017787
     8  O   -0.140026
     9  C    0.034718
    10  C   -0.017473
    11  C   -0.006100
 Sum of Mulliken charges with hydrogens summed into heavy atoms =   0.00000
 Electronic spatial extent (au):  <R**2>=           2010.1195
 Charge=              0.0000 electrons
 Dipole moment (field-independent basis, Debye):
    X=             -0.7340    Y=              0.2838    Z=             -1.0876  Tot=              1.3425
 Quadrupole moment (field-independent basis, Debye-Ang):
   XX=            -67.2840   YY=            -65.3024   ZZ=            -68.0955
   XY=             -1.8085   XZ=              0.2529   YZ=             -1.2892
 Traceless Quadrupole moment (field-independent basis, Debye-Ang):
   XX=             -0.3900   YY=              1.5916   ZZ=             -1.2016
   XY=             -1.8085   XZ=              0.2529   YZ=             -1.2892
 Octapole moment (field-independent basis, Debye-Ang**2):
  XXX=             -3.1687  YYY=             16.9349  ZZZ=              0.8097  XYY=             -7.3740
  XXY=              7.6482  XXZ=              1.7925  XZZ=             -0.8288  YZZ=              2.3531
  YYZ=              0.5069  XYZ=             -0.8272
 Hexadecapole moment (field-independent basis, Debye-Ang**3):
 XXXX=          -1747.8780 YYYY=           -427.0201 ZZZZ=           -392.9922 XXXY=              0.1730
 XXXZ=             12.2402 YYYX=            -19.6080 YYYZ=              2.9240 ZZZX=             -5.1133
 ZZZY=              7.7584 XXYY=           -354.1317 XXZZ=           -357.3668 YYZZ=           -140.9968
 XXYZ=              0.7211 YYXZ=             -1.8890 ZZXY=              0.7263
 N-N= 7.032619106981D+02 E-N=-2.478792214949D+03  KE= 4.555358502578D+02
 ******************************Gaussian NBO Version 3.1******************************
             N A T U R A L   A T O M I C   O R B I T A L   A N D
          N A T U R A L   B O N D   O R B I T A L   A N A L Y S I S
 ******************************Gaussian NBO Version 3.1******************************
       /RESON  / : Allow strongly delocalized NBO set
       /NLMO   / : Form Natural Localized Molecular Orbitals
       /NMR /    : Analyze NMR Sheilding Tensor 

 Analyzing the SCF density

 Job title: comment                                                         

 Storage needed:     19864 in NPA,     23691 in NBO,     45933 in NLMO (  33549317 available)


 NATURAL POPULATIONS:  Natural atomic orbital occupancies 
                                                          
   NAO  Atom  No  lang   Type(AO)    Occupancy      Energy
 ----------------------------------------------------------
     1    C    1  S      Cor( 1S)     1.99998     -10.96207
     2    C    1  S      Val( 2S)     1.08105      -0.17958
     3    C    1  px     Val( 2p)     1.00739       0.08916
     4    C    1  py     Val( 2p)     1.02482       0.08694
     5    C    1  pz     Val( 2p)     1.01383       0.08878

     6    C    2  S      Cor( 1S)     1.99997     -10.98660
     7    C    2  S      Val( 2S)     1.08173      -0.19070
     8    C    2  px     Val( 2p)     0.96467       0.10996
     9    C    2  py     Val( 2p)     0.97067       0.10869
    10    C    2  pz     Val( 2p)     0.96592       0.11414

    11    C    3  S      Cor( 1S)     1.99989     -11.03536
    12    C    3  S      Val( 2S)     1.08838      -0.21717
    13    C    3  px     Val( 2p)     0.96714       0.08740
    14    C    3  py     Val( 2p)     0.95710       0.08994
    15    C    3  pz     Val( 2p)     0.84020       0.12542

    16    C    4  S      Cor( 1S)     1.99996     -10.96997
    17    C    4  S      Val( 2S)     1.08421      -0.18411
    18    C    4  px     Val( 2p)     0.99235       0.10059
    19    C    4  py     Val( 2p)     0.98218       0.10261
    20    C    4  pz     Val( 2p)     1.00679       0.09819

    21    C    5  S      Cor( 1S)     1.99995     -10.98780
    22    C    5  S      Val( 2S)     1.10367      -0.20979
    23    C    5  px     Val( 2p)     0.95838       0.10783
    24    C    5  py     Val( 2p)     0.95138       0.11384
    25    C    5  pz     Val( 2p)     0.99661       0.09773

    26    C    6  S      Cor( 1S)     1.99996     -10.96761
    27    C    6  S      Val( 2S)     1.08311      -0.18075
    28    C    6  px     Val( 2p)     0.97212       0.10680
    29    C    6  py     Val( 2p)     1.01169       0.09831
    30    C    6  pz     Val( 2p)     0.99722       0.10295

    31    C    7  S      Cor( 1S)     1.99996     -10.97574
    32    C    7  S      Val( 2S)     1.09435      -0.20071
    33    C    7  px     Val( 2p)     0.99266       0.08925
    34    C    7  py     Val( 2p)     0.99951       0.08849
    35    C    7  pz     Val( 2p)     1.00545       0.08510

    36    O    8  S      Cor( 1S)     1.99999     -20.14091
    37    O    8  S      Val( 2S)     1.74564      -0.99776
    38    O    8  px     Val( 2p)     1.65279      -0.24477
    39    O    8  py     Val( 2p)     1.50390      -0.17904
    40    O    8  pz     Val( 2p)     1.43655      -0.15437

    41    C    9  S      Cor( 1S)     1.99996     -10.98591
    42    C    9  S      Val( 2S)     1.08479      -0.18959
    43    C    9  px     Val( 2p)     0.94563       0.11802
    44    C    9  py     Val( 2p)     0.99034       0.10953
    45    C    9  pz     Val( 2p)     0.95324       0.12130

    46    C   10  S      Cor( 1S)     1.99997     -10.95937
    47    C   10  S      Val( 2S)     1.08226      -0.17830
    48    C   10  px     Val( 2p)     1.00627       0.09007
    49    C   10  py     Val( 2p)     1.01904       0.09137
    50    C   10  pz     Val( 2p)     1.02037       0.09038

    51    C   11  S      Cor( 1S)     1.99996     -10.95114
    52    C   11  S      Val( 2S)     1.08036      -0.16851
    53    C   11  px     Val( 2p)     1.03704       0.09390
    54    C   11  py     Val( 2p)     1.02898       0.09780
    55    C   11  pz     Val( 2p)     0.98782       0.10275

    56    H   12  S      Val( 1S)     0.96196       0.07965

    57    H   13  S      Val( 1S)     0.96732       0.07366

    58    H   14  S      Val( 1S)     0.96344       0.07693

    59    H   15  S      Val( 1S)     0.97881       0.06765

    60    H   16  S      Val( 1S)     0.99700       0.04723

    61    H   17  S      Val( 1S)     0.96745       0.07928

    62    H   18  S      Val( 1S)     0.97603       0.07125

    63    H   19  S      Val( 1S)     0.97790       0.06512

    64    H   20  S      Val( 1S)     0.97206       0.07456

    65    H   21  S      Val( 1S)     0.96296       0.08724

    66    H   22  S      Val( 1S)     0.97313       0.06081

    67    H   23  S      Val( 1S)     0.96875       0.06577

    68    H   24  S      Val( 1S)     0.80960       0.07417

    69    H   25  S      Val( 1S)     0.97579       0.07436

    70    H   26  S      Val( 1S)     0.96574       0.07884

    71    H   27  S      Val( 1S)     0.96741       0.07726

    72    H   28  S      Val( 1S)     0.96405       0.07882

    73    H   29  S      Val( 1S)     0.96622       0.08346

    74    H   30  S      Val( 1S)     0.96728       0.08502

    75    H   31  S      Val( 1S)     0.94795       0.10604


 Summary of Natural Population Analysis:                  
                                                          
                                       Natural Population 
                Natural  -----------------------------------------------
    Atom  No    Charge         Core      Valence    Rydberg      Total
 -----------------------------------------------------------------------
      C    1   -0.12707      1.99998     4.12710    0.00000     6.12707
      C    2    0.01704      1.99997     3.98299    0.00000     5.98296
      C    3    0.14729      1.99989     3.85282    0.00000     5.85271
      C    4   -0.06549      1.99996     4.06554    0.00000     6.06549
      C    5   -0.00999      1.99995     4.01005    0.00000     6.00999
      C    6   -0.06410      1.99996     4.06413    0.00000     6.06410
      C    7   -0.09193      1.99996     4.09197    0.00000     6.09193
      O    8   -0.33887      1.99999     6.33888    0.00000     8.33887
      C    9    0.02604      1.99996     3.97400    0.00000     5.97396
      C   10   -0.12792      1.99997     4.12795    0.00000     6.12792
      C   11   -0.13417      1.99996     4.13420    0.00000     6.13417
      H   12    0.03804      0.00000     0.96196    0.00000     0.96196
      H   13    0.03268      0.00000     0.96732    0.00000     0.96732
      H   14    0.03656      0.00000     0.96344    0.00000     0.96344
      H   15    0.02119      0.00000     0.97881    0.00000     0.97881
      H   16    0.00300      0.00000     0.99700    0.00000     0.99700
      H   17    0.03255      0.00000     0.96745    0.00000     0.96745
      H   18    0.02397      0.00000     0.97603    0.00000     0.97603
      H   19    0.02210      0.00000     0.97790    0.00000     0.97790
      H   20    0.02794      0.00000     0.97206    0.00000     0.97206
      H   21    0.03704      0.00000     0.96296    0.00000     0.96296
      H   22    0.02687      0.00000     0.97313    0.00000     0.97313
      H   23    0.03125      0.00000     0.96875    0.00000     0.96875
      H   24    0.19040      0.00000     0.80960    0.00000     0.80960
      H   25    0.02421      0.00000     0.97579    0.00000     0.97579
      H   26    0.03426      0.00000     0.96574    0.00000     0.96574
      H   27    0.03259      0.00000     0.96741    0.00000     0.96741
      H   28    0.03595      0.00000     0.96405    0.00000     0.96405
      H   29    0.03378      0.00000     0.96622    0.00000     0.96622
      H   30    0.03272      0.00000     0.96728    0.00000     0.96728
      H   31    0.05205      0.00000     0.94795    0.00000     0.94795
 =======================================================================
   * Total *    0.00000     21.99954    66.00046    0.00000    88.00000

                                 Natural Population      
 --------------------------------------------------------
   Core                      21.99954 ( 99.9979% of  22)
   Valence                   66.00046 (100.0007% of  66)
   Natural Minimal Basis     88.00000 (100.0000% of  88)
   Natural Rydberg Basis      0.00000 (  0.0000% of  88)
 --------------------------------------------------------

    Atom  No          Natural Electron Configuration
 ----------------------------------------------------------------------------
      C    1      [core]2S( 1.08)2p( 3.05)
      C    2      [core]2S( 1.08)2p( 2.90)
      C    3      [core]2S( 1.09)2p( 2.76)
      C    4      [core]2S( 1.08)2p( 2.98)
      C    5      [core]2S( 1.10)2p( 2.91)
      C    6      [core]2S( 1.08)2p( 2.98)
      C    7      [core]2S( 1.09)2p( 3.00)
      O    8      [core]2S( 1.75)2p( 4.59)
      C    9      [core]2S( 1.08)2p( 2.89)
      C   10      [core]2S( 1.08)2p( 3.05)
      C   11      [core]2S( 1.08)2p( 3.05)
      H   12            1S( 0.96)
      H   13            1S( 0.97)
      H   14            1S( 0.96)
      H   15            1S( 0.98)
      H   16            1S( 1.00)
      H   17            1S( 0.97)
      H   18            1S( 0.98)
      H   19            1S( 0.98)
      H   20            1S( 0.97)
      H   21            1S( 0.96)
      H   22            1S( 0.97)
      H   23            1S( 0.97)
      H   24            1S( 0.81)
      H   25            1S( 0.98)
      H   26            1S( 0.97)
      H   27            1S( 0.97)
      H   28            1S( 0.96)
      H   29            1S( 0.97)
      H   30            1S( 0.97)
      H   31            1S( 0.95)


 NATURAL BOND ORBITAL ANALYSIS:

                       Occupancies       Lewis Structure    Low   High
           Occ.    -------------------  -----------------   occ   occ
  Cycle   Thresh.   Lewis   Non-Lewis     CR  BD  3C  LP    (L)   (NL)   Dev
 =============================================================================
   1(1)    1.90    87.64403   0.35597     11  31   0   2     0      0    0.02
 -----------------------------------------------------------------------------

 Structure accepted: No low occupancy Lewis orbitals

 --------------------------------------------------------
   Core                     21.99953 ( 99.998% of  22)
   Valence Lewis            65.64450 ( 99.461% of  66)
  ==================       ============================
   Total Lewis              87.64403 ( 99.595% of  88)
  -----------------------------------------------------
   Valence non-Lewis         0.35597 (  0.405% of  88)
   Rydberg non-Lewis         0.00000 (  0.000% of  88)
  ==================       ============================
   Total non-Lewis           0.35597 (  0.405% of  88)
 --------------------------------------------------------


       (Occupancy)   Bond orbital/ Coefficients/ Hybrids
 ---------------------------------------------------------------------------------
     1. (1.99047) BD ( 1) C   1 - C   2  
                ( 50.92%)   0.7136* C   1 s( 25.77%)p 2.88( 74.23%)
                                            0.0001  0.5076  0.6048 -0.2792 -0.5465
                ( 49.08%)   0.7006* C   2 s( 25.05%)p 2.99( 74.95%)
                                            0.0000  0.5005 -0.5846  0.3095  0.5585
     2. (1.99531) BD ( 1) C   1 - H  12  
                ( 51.95%)   0.7208* C   1 s( 24.87%)p 3.02( 75.13%)
                                            0.0000  0.4987  0.3328  0.6072  0.5214
                ( 48.05%)   0.6932* H  12 s(100.00%)
                                            1.0000
     3. (1.99485) BD ( 1) C   1 - H  13  
                ( 51.64%)   0.7186* C   1 s( 24.64%)p 3.06( 75.36%)
                                            0.0000  0.4963 -0.6632  0.3389 -0.4460
                ( 48.36%)   0.6954* H  13 s(100.00%)
                                            1.0000
     4. (1.99503) BD ( 1) C   1 - H  14  
                ( 51.84%)   0.7200* C   1 s( 24.73%)p 3.04( 75.27%)
                                            0.0000  0.4973 -0.2892 -0.6622  0.4802
                ( 48.16%)   0.6940* H  14 s(100.00%)
                                            1.0000
     5. (1.98512) BD ( 1) C   2 - C   6  
                ( 49.91%)   0.7065* C   2 s( 25.40%)p 2.94( 74.60%)
                                            0.0000  0.5040  0.6476 -0.3730  0.4329
                ( 50.09%)   0.7077* C   6 s( 25.29%)p 2.95( 74.71%)
                                            0.0001  0.5029 -0.6214  0.4092 -0.4398
     6. (1.98508) BD ( 1) C   2 - C   7  
                ( 49.18%)   0.7013* C   2 s( 25.25%)p 2.96( 74.75%)
                                            0.0000  0.5024  0.3063  0.6452 -0.4872
                ( 50.82%)   0.7129* C   7 s( 25.48%)p 2.92( 74.52%)
                                            0.0001  0.5048 -0.2687 -0.6193  0.5380
     7. (1.98629) BD ( 1) C   2 - H  15  
                ( 50.98%)   0.7140* C   2 s( 24.30%)p 3.11( 75.70%)
                                            0.0000  0.4930 -0.3808 -0.5905 -0.5131
                ( 49.02%)   0.7002* H  15 s(100.00%)
                                            1.0000
     8. (1.98127) BD ( 1) C   3 - C   5  
                ( 50.77%)   0.7125* C   3 s( 26.62%)p 2.76( 73.38%)
                                            0.0000  0.5159  0.5896 -0.6189  0.0559
                ( 49.23%)   0.7017* C   5 s( 25.12%)p 2.98( 74.88%)
                                            0.0000  0.5012 -0.6042  0.6164  0.0615
     9. (1.98791) BD ( 1) C   3 - C   7  
                ( 49.30%)   0.7021* C   3 s( 25.63%)p 2.90( 74.37%)
                                            0.0000  0.5062 -0.7634 -0.3263 -0.2336
                ( 50.70%)   0.7121* C   7 s( 25.11%)p 2.98( 74.89%)
                                            0.0000  0.5011  0.7669  0.3034  0.2621
    10. (1.98905) BD ( 1) C   3 - O   8  
                ( 40.83%)   0.6390* C   3 s( 22.31%)p 3.48( 77.69%)
                                            0.0000  0.4724 -0.0906  0.3788  0.7906
                ( 59.17%)   0.7692* O   8 s( 16.89%)p 4.92( 83.11%)
                                            0.0000  0.4109  0.0402 -0.3708 -0.8319
    11. (1.98883) BD ( 1) C   3 - H  16  
                ( 50.43%)   0.7101* C   3 s( 25.44%)p 2.93( 74.56%)
                                            0.0000  0.5044  0.2479  0.6058 -0.5632
                ( 49.57%)   0.7041* H  16 s(100.00%)
                                            1.0000
    12. (1.98590) BD ( 1) C   4 - C   5  
                ( 50.29%)   0.7092* C   4 s( 25.49%)p 2.92( 74.51%)
                                            0.0001  0.5048  0.3086  0.7798 -0.2045
                ( 49.71%)   0.7050* C   5 s( 25.51%)p 2.92( 74.49%)
                                            0.0000  0.5051 -0.3165 -0.7496  0.2877
    13. (1.99016) BD ( 1) C   4 - C   6  
                ( 50.13%)   0.7080* C   4 s( 25.31%)p 2.95( 74.69%)
                                            0.0000  0.5031 -0.7113  0.0826  0.4838
                ( 49.87%)   0.7062* C   6 s( 25.18%)p 2.97( 74.82%)
                                            0.0000  0.5018  0.7139 -0.0543 -0.4853
    14. (1.98904) BD ( 1) C   4 - H  17  
                ( 51.62%)   0.7184* C   4 s( 25.22%)p 2.97( 74.78%)
                                            0.0000  0.5022  0.5986 -0.4480  0.4344
                ( 48.38%)   0.6956* H  17 s(100.00%)
                                            1.0000
    15. (1.99136) BD ( 1) C   4 - H  18  
                ( 51.19%)   0.7155* C   4 s( 23.98%)p 3.17( 76.02%)
                                            0.0000  0.4897 -0.2011 -0.4294 -0.7317
                ( 48.81%)   0.6986* H  18 s(100.00%)
                                            1.0000
    16. (1.97953) BD ( 1) C   5 - C   9  
                ( 50.46%)   0.7104* C   5 s( 25.83%)p 2.87( 74.17%)
                                            0.0001  0.5082  0.6960  0.2234  0.4555
                ( 49.54%)   0.7038* C   9 s( 25.32%)p 2.95( 74.68%)
                                            0.0001  0.5032 -0.7366 -0.2517 -0.3755
    17. (1.98351) BD ( 1) C   5 - H  19  
                ( 50.93%)   0.7137* C   5 s( 23.53%)p 3.25( 76.47%)
                                            0.0000  0.4851  0.2247 -0.0905 -0.8402
                ( 49.07%)   0.7005* H  19 s(100.00%)
                                            1.0000
    18. (1.98996) BD ( 1) C   6 - H  20  
                ( 51.35%)   0.7166* C   6 s( 24.71%)p 3.05( 75.29%)
                                            0.0000  0.4971 -0.2697 -0.7985  0.2065
                ( 48.65%)   0.6975* H  20 s(100.00%)
                                            1.0000
    19. (1.99070) BD ( 1) C   6 - H  21  
                ( 51.90%)   0.7204* C   6 s( 24.82%)p 3.03( 75.18%)
                                            0.0000  0.4982  0.1773  0.4383  0.7269
                ( 48.10%)   0.6935* H  21 s(100.00%)
                                            1.0000
    20. (1.98882) BD ( 1) C   7 - H  22  
                ( 51.31%)   0.7163* C   7 s( 25.11%)p 2.98( 74.89%)
                                            0.0000  0.5011 -0.5770  0.6448 -0.0162
                ( 48.69%)   0.6977* H  22 s(100.00%)
                                            1.0000
    21. (1.98961) BD ( 1) C   7 - H  23  
                ( 51.50%)   0.7176* C   7 s( 24.29%)p 3.12( 75.71%)
                                            0.0000  0.4929  0.0822 -0.3297 -0.8010
                ( 48.50%)   0.6964* H  23 s(100.00%)
                                            1.0000
    22. (1.98836) BD ( 1) O   8 - H  24  
                ( 59.52%)   0.7715* O   8 s( 16.88%)p 4.92( 83.12%)
                                            0.0000  0.4108 -0.6345  0.6445 -0.1150
                ( 40.48%)   0.6363* H  24 s(100.00%)
                                            1.0000
    23. (1.98905) BD ( 1) C   9 - C  10  
                ( 48.81%)   0.6987* C   9 s( 24.60%)p 3.07( 75.40%)
                                            0.0000  0.4960  0.6592 -0.4705 -0.3132
                ( 51.19%)   0.7154* C  10 s( 25.76%)p 2.88( 74.24%)
                                            0.0001  0.5075 -0.6781  0.4339  0.3072
    24. (1.98986) BD ( 1) C   9 - C  11  
                ( 49.34%)   0.7024* C   9 s( 25.57%)p 2.91( 74.43%)
                                            0.0000  0.5056 -0.0526 -0.1094  0.8542
                ( 50.66%)   0.7118* C  11 s( 25.95%)p 2.85( 74.05%)
                                            0.0001  0.5094  0.0008  0.0811 -0.8567
    25. (1.98432) BD ( 1) C   9 - H  25  
                ( 51.10%)   0.7148* C   9 s( 24.52%)p 3.08( 75.48%)
                                            0.0000  0.4952  0.1419  0.8387 -0.1769
                ( 48.90%)   0.6993* H  25 s(100.00%)
                                            1.0000
    26. (1.99536) BD ( 1) C  10 - H  26  
                ( 51.77%)   0.7195* C  10 s( 24.90%)p 3.02( 75.10%)
                                            0.0000  0.4990 -0.0960 -0.8464  0.1592
                ( 48.23%)   0.6945* H  26 s(100.00%)
                                            1.0000
    27. (1.99509) BD ( 1) C  10 - H  27  
                ( 51.65%)   0.7187* C  10 s( 24.62%)p 3.06( 75.38%)
                                            0.0000  0.4962  0.0627  0.1243 -0.8570
                ( 48.35%)   0.6953* H  27 s(100.00%)
                                            1.0000
    28. (1.99483) BD ( 1) C  10 - H  28  
                ( 51.80%)   0.7197* C  10 s( 24.72%)p 3.04( 75.28%)
                                            0.0000  0.4972  0.7260  0.2827  0.3819
                ( 48.20%)   0.6942* H  28 s(100.00%)
                                            1.0000
    29. (1.99412) BD ( 1) C  11 - H  29  
                ( 51.67%)   0.7188* C  11 s( 24.30%)p 3.12( 75.70%)
                                            0.0000  0.4930  0.7444  0.3134  0.3235
                ( 48.33%)   0.6952* H  29 s(100.00%)
                                            1.0000
    30. (1.99478) BD ( 1) C  11 - H  30  
                ( 51.68%)   0.7189* C  11 s( 24.72%)p 3.05( 75.28%)
                                            0.0000  0.4972 -0.0707 -0.8373  0.2162
                ( 48.32%)   0.6951* H  30 s(100.00%)
                                            1.0000
    31. (1.99495) BD ( 1) C  11 - H  31  
                ( 52.67%)   0.7258* C  11 s( 25.04%)p 2.99( 74.96%)
                                            0.0000  0.5004 -0.6640  0.4406  0.3386
                ( 47.33%)   0.6879* H  31 s(100.00%)
                                            1.0000
    32. (1.99997) CR ( 1) C   1           s(100.00%)
                                            1.0000  0.0000 -0.0001  0.0000  0.0000
    33. (1.99996) CR ( 1) C   2           s(100.00%)
                                            1.0000  0.0000  0.0000  0.0000  0.0000
    34. (1.99989) CR ( 1) C   3           s(100.00%)
                                            1.0000  0.0000  0.0000  0.0000  0.0000
    35. (1.99996) CR ( 1) C   4           s(100.00%)
                                            1.0000  0.0000  0.0000 -0.0001  0.0000
    36. (1.99994) CR ( 1) C   5           s(100.00%)
                                            1.0000 -0.0001  0.0000  0.0000 -0.0001
    37. (1.99996) CR ( 1) C   6           s(100.00%)
                                            1.0000  0.0000  0.0000 -0.0001  0.0000
    38. (1.99996) CR ( 1) C   7           s(100.00%)
                                            1.0000  0.0000  0.0000  0.0000 -0.0001
    39. (1.99999) CR ( 1) O   8           s(100.00%)
                                            1.0000  0.0000  0.0000  0.0000  0.0000
    40. (1.99996) CR ( 1) C   9           s(100.00%)
                                            1.0000  0.0000  0.0001  0.0000  0.0000
    41. (1.99997) CR ( 1) C  10           s(100.00%)
                                            1.0000  0.0000  0.0001  0.0000  0.0000
    42. (1.99996) CR ( 1) C  11           s(100.00%)
                                            1.0000  0.0000  0.0000  0.0000  0.0001
    43. (1.99108) LP ( 1) O   8           s( 66.13%)p 0.51( 33.87%)
                                            0.0000  0.8132  0.2712 -0.1643  0.4880
    44. (1.97492) LP ( 2) O   8           s(  0.11%)p99.99( 99.89%)
                                            0.0000  0.0327  0.7227  0.6482 -0.2378
    45. (0.00954) BD*( 1) C   1 - C   2  
                ( 49.08%)   0.7006* C   1 s( 25.77%)p 2.88( 74.23%)
                                           -0.0001 -0.5076 -0.6048  0.2792  0.5465
                ( 50.92%)  -0.7136* C   2 s( 25.05%)p 2.99( 74.95%)
                                            0.0000 -0.5005  0.5846 -0.3095 -0.5585
    46. (0.00622) BD*( 1) C   1 - H  12  
                ( 48.05%)   0.6932* C   1 s( 24.87%)p 3.02( 75.13%)
                                            0.0000 -0.4987 -0.3328 -0.6072 -0.5214
                ( 51.95%)  -0.7208* H  12 s(100.00%)
                                           -1.0000
    47. (0.00518) BD*( 1) C   1 - H  13  
                ( 48.36%)   0.6954* C   1 s( 24.64%)p 3.06( 75.36%)
                                            0.0000 -0.4963  0.6632 -0.3389  0.4460
                ( 51.64%)  -0.7186* H  13 s(100.00%)
                                           -1.0000
    48. (0.00507) BD*( 1) C   1 - H  14  
                ( 48.16%)   0.6940* C   1 s( 24.73%)p 3.04( 75.27%)
                                            0.0000 -0.4973  0.2892  0.6622 -0.4802
                ( 51.84%)  -0.7200* H  14 s(100.00%)
                                           -1.0000
    49. (0.01587) BD*( 1) C   2 - C   6  
                ( 50.09%)   0.7077* C   2 s( 25.40%)p 2.94( 74.60%)
                                            0.0000  0.5040  0.6476 -0.3730  0.4329
                ( 49.91%)  -0.7065* C   6 s( 25.29%)p 2.95( 74.71%)
                                            0.0001  0.5029 -0.6214  0.4092 -0.4398
    50. (0.01744) BD*( 1) C   2 - C   7  
                ( 50.82%)   0.7129* C   2 s( 25.25%)p 2.96( 74.75%)
                                            0.0000  0.5024  0.3063  0.6452 -0.4872
                ( 49.18%)  -0.7013* C   7 s( 25.48%)p 2.92( 74.52%)
                                            0.0001  0.5048 -0.2687 -0.6193  0.5380
    51. (0.00992) BD*( 1) C   2 - H  15  
                ( 49.02%)   0.7002* C   2 s( 24.30%)p 3.11( 75.70%)
                                            0.0000 -0.4930  0.3808  0.5905  0.5131
                ( 50.98%)  -0.7140* H  15 s(100.00%)
                                           -1.0000
    52. (0.02821) BD*( 1) C   3 - C   5  
                ( 49.23%)   0.7017* C   3 s( 26.62%)p 2.76( 73.38%)
                                            0.0000 -0.5159 -0.5896  0.6189 -0.0559
                ( 50.77%)  -0.7125* C   5 s( 25.12%)p 2.98( 74.88%)
                                            0.0000 -0.5012  0.6042 -0.6164 -0.0615
    53. (0.02662) BD*( 1) C   3 - C   7  
                ( 50.70%)   0.7121* C   3 s( 25.63%)p 2.90( 74.37%)
                                            0.0000  0.5062 -0.7634 -0.3263 -0.2336
                ( 49.30%)  -0.7021* C   7 s( 25.11%)p 2.98( 74.89%)
                                            0.0000  0.5011  0.7669  0.3034  0.2621
    54. (0.02314) BD*( 1) C   3 - O   8  
                ( 59.17%)   0.7692* C   3 s( 22.31%)p 3.48( 77.69%)
                                            0.0000  0.4724 -0.0906  0.3788  0.7906
                ( 40.83%)  -0.6390* O   8 s( 16.89%)p 4.92( 83.11%)
                                            0.0000  0.4109  0.0402 -0.3708 -0.8319
    55. (0.02191) BD*( 1) C   3 - H  16  
                ( 49.57%)   0.7041* C   3 s( 25.44%)p 2.93( 74.56%)
                                            0.0000 -0.5044 -0.2479 -0.6058  0.5632
                ( 50.43%)  -0.7101* H  16 s(100.00%)
                                           -1.0000
    56. (0.01783) BD*( 1) C   4 - C   5  
                ( 49.71%)   0.7050* C   4 s( 25.49%)p 2.92( 74.51%)
                                           -0.0001 -0.5048 -0.3086 -0.7798  0.2045
                ( 50.29%)  -0.7092* C   5 s( 25.51%)p 2.92( 74.49%)
                                            0.0000 -0.5051  0.3165  0.7496 -0.2877
    57. (0.01085) BD*( 1) C   4 - C   6  
                ( 49.87%)   0.7062* C   4 s( 25.31%)p 2.95( 74.69%)
                                            0.0000 -0.5031  0.7113 -0.0826 -0.4838
                ( 50.13%)  -0.7080* C   6 s( 25.18%)p 2.97( 74.82%)
                                            0.0000 -0.5018 -0.7139  0.0543  0.4853
    58. (0.00983) BD*( 1) C   4 - H  17  
                ( 48.38%)   0.6956* C   4 s( 25.22%)p 2.97( 74.78%)
                                            0.0000 -0.5022 -0.5986  0.4480 -0.4344
                ( 51.62%)  -0.7184* H  17 s(100.00%)
                                           -1.0000
    59. (0.00800) BD*( 1) C   4 - H  18  
                ( 48.81%)   0.6986* C   4 s( 23.98%)p 3.17( 76.02%)
                                            0.0000 -0.4897  0.2011  0.4294  0.7317
                ( 51.19%)  -0.7155* H  18 s(100.00%)
                                           -1.0000
    60. (0.02167) BD*( 1) C   5 - C   9  
                ( 49.54%)   0.7038* C   5 s( 25.83%)p 2.87( 74.17%)
                                           -0.0001 -0.5082 -0.6960 -0.2234 -0.4555
                ( 50.46%)  -0.7104* C   9 s( 25.32%)p 2.95( 74.68%)
                                           -0.0001 -0.5032  0.7366  0.2517  0.3755
    61. (0.00900) BD*( 1) C   5 - H  19  
                ( 49.07%)   0.7005* C   5 s( 23.53%)p 3.25( 76.47%)
                                            0.0000 -0.4851 -0.2247  0.0905  0.8402
                ( 50.93%)  -0.7137* H  19 s(100.00%)
                                           -1.0000
    62. (0.00771) BD*( 1) C   6 - H  20  
                ( 48.65%)   0.6975* C   6 s( 24.71%)p 3.05( 75.29%)
                                            0.0000 -0.4971  0.2697  0.7985 -0.2065
                ( 51.35%)  -0.7166* H  20 s(100.00%)
                                           -1.0000
    63. (0.01064) BD*( 1) C   6 - H  21  
                ( 48.10%)   0.6935* C   6 s( 24.82%)p 3.03( 75.18%)
                                            0.0000 -0.4982 -0.1773 -0.4383 -0.7269
                ( 51.90%)  -0.7204* H  21 s(100.00%)
                                           -1.0000
    64. (0.00949) BD*( 1) C   7 - H  22  
                ( 48.69%)   0.6977* C   7 s( 25.11%)p 2.98( 74.89%)
                                            0.0000 -0.5011  0.5770 -0.6448  0.0162
                ( 51.31%)  -0.7163* H  22 s(100.00%)
                                           -1.0000
    65. (0.00738) BD*( 1) C   7 - H  23  
                ( 48.50%)   0.6964* C   7 s( 24.29%)p 3.12( 75.71%)
                                            0.0000 -0.4929 -0.0822  0.3297  0.8010
                ( 51.50%)  -0.7176* H  23 s(100.00%)
                                           -1.0000
    66. (0.00778) BD*( 1) O   8 - H  24  
                ( 40.48%)   0.6363* O   8 s( 16.88%)p 4.92( 83.12%)
                                            0.0000 -0.4108  0.6345 -0.6445  0.1150
                ( 59.52%)  -0.7715* H  24 s(100.00%)
                                           -1.0000
    67. (0.00998) BD*( 1) C   9 - C  10  
                ( 51.19%)   0.7154* C   9 s( 24.60%)p 3.07( 75.40%)
                                            0.0000  0.4960  0.6592 -0.4705 -0.3132
                ( 48.81%)  -0.6987* C  10 s( 25.76%)p 2.88( 74.24%)
                                            0.0001  0.5075 -0.6781  0.4339  0.3072
    68. (0.01056) BD*( 1) C   9 - C  11  
                ( 50.66%)   0.7118* C   9 s( 25.57%)p 2.91( 74.43%)
                                            0.0000  0.5056 -0.0526 -0.1094  0.8542
                ( 49.34%)  -0.7024* C  11 s( 25.95%)p 2.85( 74.05%)
                                            0.0001  0.5094  0.0008  0.0811 -0.8567
    69. (0.01073) BD*( 1) C   9 - H  25  
                ( 48.90%)   0.6993* C   9 s( 24.52%)p 3.08( 75.48%)
                                            0.0000 -0.4952 -0.1419 -0.8387  0.1769
                ( 51.10%)  -0.7148* H  25 s(100.00%)
                                           -1.0000
    70. (0.00650) BD*( 1) C  10 - H  26  
                ( 48.23%)   0.6945* C  10 s( 24.90%)p 3.02( 75.10%)
                                            0.0000 -0.4990  0.0960  0.8464 -0.1592
                ( 51.77%)  -0.7195* H  26 s(100.00%)
                                           -1.0000
    71. (0.00538) BD*( 1) C  10 - H  27  
                ( 48.35%)   0.6953* C  10 s( 24.62%)p 3.06( 75.38%)
                                            0.0000 -0.4962 -0.0627 -0.1243  0.8570
                ( 51.65%)  -0.7187* H  27 s(100.00%)
                                           -1.0000
    72. (0.00501) BD*( 1) C  10 - H  28  
                ( 48.20%)   0.6942* C  10 s( 24.72%)p 3.04( 75.28%)
                                            0.0000 -0.4972 -0.7260 -0.2827 -0.3819
[...]
   20      -0.6238       -1.1194       0.4956        -1.4586       0.8348
   21      -0.9458       -1.3595       0.4137        -1.2861       0.3404
   22      20.1522       11.1517       9.0005         5.7191      14.4331
   39     271.1696       -0.0041     271.1737        -0.0039     271.1735
   43      34.6169       -3.9356      38.5525        -2.7514      37.3683
   44       4.6173      -34.6681      39.2854       -35.3647      39.9821
 Sum      356.3743      -19.5903     375.9646       -21.3092     377.6835

 Contributions to Isotropic shielding for atom    9 (   213.3486 ppm):
                         Standard Origin              Atomic Origin
 NLMO      Total    Paramagnetic  Diamagnetic   Paramagnetic  Diamagnetic
   10       0.0628       -0.4743       0.5371        -1.3838       1.4465
   14      -0.1807       -0.5742       0.3935        -1.1166       0.9360
   16       5.3303       -8.8367      14.1670        -2.2145       7.5448
   23      -2.6911       -4.2040       1.5129       -10.0602       7.3691
   24       0.1056       -7.1080       7.2136        -7.6160       7.7216
   25       5.7991       -1.9880       7.7871        -5.1305      10.9296
   26       1.1221       -0.3476       1.4698         0.0900       1.0321
   27       0.7408       -0.6048       1.3456        -0.2794       1.0201
   28       0.6707       -0.4147       1.0854        -0.3541       1.0248
   29       0.6006       -0.1248       0.7254        -0.4271       1.0277
   30       0.8351       -0.1773       1.0124        -0.1683       1.0034
   31       0.5595       -0.6136       1.1731        -0.4624       1.0220
   40     199.9211       -0.0016     199.9226         0.0023     199.9188
 Sum      212.8759      -25.4695     238.3454       -29.1207     241.9966

 Contributions to Isotropic shielding for atom   10 (   220.1810 ppm):
                         Standard Origin              Atomic Origin
 NLMO      Total    Paramagnetic  Diamagnetic   Paramagnetic  Diamagnetic
   17      -0.2939       -0.1292      -0.1647        -1.2191       0.9251
   23       4.8989      -12.2630      17.1619        -3.1874       8.0863
   24      -0.5274        0.1170      -0.6444        -1.2816       0.7542
   25       0.2986        0.1649       0.1337        -0.7461       1.0447
   26       6.2398       -4.1777      10.4176        -4.8860      11.1258
   27       4.8112       -3.1666       7.9778        -6.2291      11.0403
   28       4.4701        1.7401       2.7300        -6.6401      11.1102
   41     200.0756       -0.0042     200.0798         0.0024     200.0732
 Sum      219.9729      -17.7188     237.6916       -24.1870     244.1598

 Contributions to Isotropic shielding for atom   11 (   223.3466 ppm):
                         Standard Origin              Atomic Origin
 NLMO      Total    Paramagnetic  Diamagnetic   Paramagnetic  Diamagnetic
   10       0.1015       -0.3550       0.4565        -1.0094       1.1108
   23      -0.3623       -0.0166      -0.3457        -1.0610       0.6986
   24       3.6650       -8.3936      12.0586        -4.1710       7.8360
   25       0.3560       -0.1492       0.5052        -0.6450       1.0010
   29       5.8495        2.9207       2.9289        -5.1679      11.0174
   30       6.8318       -3.5785      10.4102        -4.2367      11.0684
   31       6.5807       -6.9794      13.5601        -4.8576      11.4383
   42     200.0731       -0.0020     200.0751         0.0013     200.0718
 Sum      223.0953      -16.5535     239.6488       -21.1472     244.2425

 Contributions to Isotropic shielding for atom   12 (    32.5185 ppm):
                         Standard Origin              Atomic Origin
 NLMO      Total    Paramagnetic  Diamagnetic   Paramagnetic  Diamagnetic
    1       1.7161       -1.3828       3.0989         0.8332       0.8829
    2      26.2579        0.3856      25.8723         0.4022      25.8557
    3       1.9142        1.4333       0.4809         0.1005       1.8137
    4       1.9670        1.1843       0.7827         0.1359       1.8311
   19      -0.2121       -0.0039      -0.2081        -1.0107       0.7986
 Sum       31.6431        1.6164      30.0267         0.4611      31.1820

 Contributions to Isotropic shielding for atom   13 (    32.5884 ppm):
                         Standard Origin              Atomic Origin
 NLMO      Total    Paramagnetic  Diamagnetic   Paramagnetic  Diamagnetic
    1       1.2886        0.0310       1.2576         0.3191       0.9695
    2       1.9990        1.0411       0.9579         0.1523       1.8467
    3      26.4837        0.1173      26.3664         0.4646      26.0190
    4       1.9114        2.3890      -0.4776         0.0649       1.8465
    6      -0.1465        0.5193      -0.6659        -1.0517       0.9051
 Sum       31.5362        4.0977      27.4385        -0.0507      31.5869

 Contributions to Isotropic shielding for atom   14 (    32.3952 ppm):
                         Standard Origin              Atomic Origin
 NLMO      Total    Paramagnetic  Diamagnetic   Paramagnetic  Diamagnetic
    1       1.3713       -0.2048       1.5761         0.3719       0.9994
    2       2.0326        0.8457       1.1869         0.1874       1.8452
    3       1.8188        2.3870      -0.5682        -0.0067       1.8255
    4      26.3578        0.1576      26.2001         0.4460      25.9118
    5      -0.0954        0.4665      -0.5620        -1.0793       0.9839
 Sum       31.4850        3.6521      27.8330        -0.0807      31.5658

 Contributions to Isotropic shielding for atom   15 (    32.4150 ppm):
                         Standard Origin              Atomic Origin
 NLMO      Total    Paramagnetic  Diamagnetic   Paramagnetic  Diamagnetic
    1       0.7945        2.4231      -1.6286        -0.2281       1.0226
    5       1.3980        0.8044       0.5936         0.4203       0.9777
    6       1.2246        1.0233       0.2013         0.1975       1.0271
    7      26.5730       -0.2911      26.8641         0.4642      26.1089
   18       0.0348        0.0320       0.0028        -1.0030       1.0377
   21      -0.1337       -0.2560       0.1223        -1.3100       1.1764
 Sum       29.8911        3.7357      26.1554        -1.4592      31.3503

 Contributions to Isotropic shielding for atom   16 (    31.8313 ppm):
                         Standard Origin              Atomic Origin
 NLMO      Total    Paramagnetic  Diamagnetic   Paramagnetic  Diamagnetic
    8       0.9982        0.3970       0.6012        -0.2159       1.2141
   10       0.6315        1.0970      -0.4655        -0.9573       1.5888
   11      26.8952        0.2874      26.6078         0.8269      26.0683
   17       0.0432       -0.2101       0.2533        -0.9953       1.0385
   21       0.2713       -0.2925       0.5638        -0.7295       1.0008
 Sum       28.8394        1.2788      27.5606        -2.0712      30.9106

 Contributions to Isotropic shielding for atom   17 (    32.3950 ppm):
                         Standard Origin              Atomic Origin
 NLMO      Total    Paramagnetic  Diamagnetic   Paramagnetic  Diamagnetic
   12       1.3040        0.4135       0.8905         0.4234       0.8806
   13       1.1422        0.8817       0.2605         0.1437       0.9985
   14      26.3514        0.0601      26.2913         0.4440      25.9074
   15       2.0319        1.6441       0.3878         0.2545       1.7774
   16      -0.1987       -0.1270      -0.0717        -1.2382       1.0395
   24      -0.0334       -0.4509       0.4174        -1.0017       0.9683
   26      -0.2842       -1.5534       1.2693        -0.8332       0.5490
   30      -0.3605       -1.2184       0.8579        -0.9163       0.5558
 Sum       29.9527       -0.3503      30.3030        -2.7238      32.6765

 Contributions to Isotropic shielding for atom   18 (    32.5706 ppm):
                         Standard Origin              Atomic Origin
 NLMO      Total    Paramagnetic  Diamagnetic   Paramagnetic  Diamagnetic
   12       1.3582        0.5581       0.8001         0.3386       1.0196
   13       1.1247        1.0102       0.1144         0.1153       1.0094
   14       2.0434        1.5811       0.4623         0.1963       1.8470
   15      26.5437       -0.0554      26.5991         0.4157      26.1280
   17      -0.1746       -0.4425       0.2679        -1.3120       1.1374
 Sum       30.8953        2.6516      28.2437        -0.2461      31.1414

 Contributions to Isotropic shielding for atom   19 (    32.4084 ppm):
                         Standard Origin              Atomic Origin
 NLMO      Total    Paramagnetic  Diamagnetic   Paramagnetic  Diamagnetic
    8       1.3151        1.1163       0.1988         0.2828       1.0323
   11       0.0952       -0.3121       0.4073        -0.9329       1.0281
   12       1.1030        0.9819       0.1211        -0.1100       1.2130
   15      -0.1484       -0.6632       0.5148        -1.3285       1.1802
   16       1.0610        1.4855      -0.4246        -0.1012       1.1622
   17      26.5354       -0.2154      26.7508         0.4549      26.0805
   23      -0.0773       -0.6052       0.5279        -1.1754       1.0981
   27      -0.1213       -1.7030       1.5818        -1.0435       0.9222
 Sum       29.7627        0.0848      29.6778        -3.9538      33.7165

 Contributions to Isotropic shielding for atom   20 (    32.4084 ppm):
                         Standard Origin              Atomic Origin
 NLMO      Total    Paramagnetic  Diamagnetic   Paramagnetic  Diamagnetic
    4      -0.0855       -1.1372       1.0517        -0.9428       0.8574
    5       0.9811        1.4499      -0.4688         0.0346       0.9465
    7       0.0763       -0.3395       0.4158        -0.9450       1.0214
   13       1.1533        0.9150       0.2383         0.1968       0.9565
   18      26.4923       -0.0396      26.5318         0.4492      26.0431
   19       2.1347        1.1160       1.0187         0.3406       1.7942
 Sum       30.7522        1.9646      28.7876        -0.8668      31.6190

 Contributions to Isotropic shielding for atom   21 (    32.4328 ppm):
                         Standard Origin              Atomic Origin
 NLMO      Total    Paramagnetic  Diamagnetic   Paramagnetic  Diamagnetic
    1      -0.0742       -0.6951       0.6209        -1.1292       1.0550
    2      -0.0411       -1.1288       1.0877        -0.9781       0.9370
    5       1.2905        0.5583       0.7322         0.5050       0.7855
   10       0.1285       -0.5037       0.6322        -1.0947       1.2232
   13       1.3597       -0.1505       1.5102         0.4503       0.9094
   18       1.9764        1.4929       0.4836         0.1973       1.7791
   19      26.1577        0.2721      25.8855         0.4088      25.7488
   43      -0.4449        0.1840      -0.6289         0.6073      -1.0522
 Sum       30.3526        0.0292      30.3235        -1.0333      31.3859

 Contributions to Isotropic shielding for atom   22 (    32.9088 ppm):
                         Standard Origin              Atomic Origin
 NLMO      Total    Paramagnetic  Diamagnetic   Paramagnetic  Diamagnetic
    1      -0.2102       -0.2379       0.0277        -1.3421       1.1319
    3      -0.0412       -1.2573       1.2161        -0.9839       0.9427
    6       1.0996        1.2290      -0.1294         0.1192       0.9804
    9       1.3255        0.6448       0.6808         0.4498       0.8758
   10      -0.1801        0.2984      -0.4785        -1.3110       1.1309
   20      26.5107        0.0285      26.4822         0.4940      26.0168
   21       2.0476        1.7660       0.2816         0.3022       1.7454
 Sum       30.5519        2.4715      28.0804        -2.2719      32.8238

 Contributions to Isotropic shielding for atom   23 (    32.3254 ppm):
                         Standard Origin              Atomic Origin
 NLMO      Total    Paramagnetic  Diamagnetic   Paramagnetic  Diamagnetic
    6       1.1812        0.7316       0.4497         0.1240       1.0572
    7      -0.0649       -0.6095       0.5446        -1.1959       1.1309
    9       1.4517        0.3224       1.1293         0.5464       0.9053
   20       1.8477        1.7725       0.0752         0.0564       1.7913
   21      26.4033        0.0790      26.3244         0.4391      25.9642
 Sum       30.8190        2.2959      28.5231        -0.0299      30.8489

 Contributions to Isotropic shielding for atom   24 (    35.2601 ppm):
                         Standard Origin              Atomic Origin
 NLMO      Total    Paramagnetic  Diamagnetic   Paramagnetic  Diamagnetic
    9      -0.1830        0.0296      -0.2126        -1.1579       0.9748
   10       1.4262        2.7982      -1.3720         0.7150       0.7112
   11       0.2171        0.1004       0.1166        -0.8246       1.0416
   22      23.0473       -0.5935      23.6408        -0.1062      23.1535
   43       4.1414        0.4772       3.6642         2.2060       1.9354
   44       5.6577        2.4768       3.1808         2.4841       3.1736
 Sum       34.3067        5.2888      29.0179         3.3165      30.9902

 Contributions to Isotropic shielding for atom   25 (    32.1388 ppm):
                         Standard Origin              Atomic Origin
 NLMO      Total    Paramagnetic  Diamagnetic   Paramagnetic  Diamagnetic
    8      -0.1719        0.1495      -0.3215        -1.2353       1.0634
   10       0.0622       -0.1961       0.2583        -1.3556       1.4178
   16       1.5793        0.0113       1.5680         0.5662       1.0131
   23       0.7678        2.1552      -1.3874        -0.2163       0.9840
   24       1.0982        1.1904      -0.0922         0.0360       1.0622
   25      26.4304       -0.0475      26.4779         0.4221      26.0083
   27       0.2696       -0.7786       1.0482        -0.6783       0.9479
 Sum       30.0355        2.4842      27.5513        -2.4611      32.4967

 Contributions to Isotropic shielding for atom   26 (    32.4530 ppm):
                         Standard Origin              Atomic Origin
 NLMO      Total    Paramagnetic  Diamagnetic   Paramagnetic  Diamagnetic
   12      -0.0657        0.2348      -0.3005        -1.0846       1.0189
   23       1.6053       -1.2443       2.8496         0.6779       0.9274
   24      -0.1278        0.4038      -0.5316        -1.0072       0.8794
   26      26.3580        0.2866      26.0714         0.4088      25.9492
   27       1.9454        1.0589       0.8865         0.1373       1.8081
   28       1.8594        1.9848      -0.1254         0.0283       1.8311
 Sum       31.5745        2.7245      28.8501        -0.8395      32.4140

 Contributions to Isotropic shielding for atom   27 (    32.5547 ppm):
                         Standard Origin              Atomic Origin
 NLMO      Total    Paramagnetic  Diamagnetic   Paramagnetic  Diamagnetic
   23       1.5882       -0.7919       2.3800         0.5827       1.0055
   26       2.0087        0.9943       1.0145         0.1667       1.8420
   27      26.4559        0.2414      26.2144         0.4448      26.0110
   28       1.8703        2.3115      -0.4412         0.0165       1.8538
 Sum       31.9231        2.7554      29.1677         1.2107      30.7124

 Contributions to Isotropic shielding for atom   28 (    32.4049 ppm):
                         Standard Origin              Atomic Origin
 NLMO      Total    Paramagnetic  Diamagnetic   Paramagnetic  Diamagnetic
   23       1.3387        0.0329       1.3058         0.3154       1.0233
   24      -0.1821        0.8023      -0.9844        -1.1937       1.0116
   26       1.9523        1.6818       0.2706         0.1036       1.8488
   27       1.8633        2.0524      -0.1891         0.0251       1.8382
   28      26.3861        0.0528      26.3332         0.4636      25.9225
 Sum       31.3583        4.6223      26.7360        -0.2861      31.6444

 Contributions to Isotropic shielding for atom   29 (    32.5477 ppm):
                         Standard Origin              Atomic Origin
 NLMO      Total    Paramagnetic  Diamagnetic   Paramagnetic  Diamagnetic
   23      -0.1322        0.4490      -0.5812        -1.1058       0.9736
   24       1.1111        1.0351       0.0760         0.0840       1.0271
   28      -0.1034       -1.2150       1.1116        -0.9863       0.8829
   29      26.4175       -0.0220      26.4395         0.4014      26.0161
   30       2.0047        1.7335       0.2712         0.1450       1.8596
   31       2.0948        1.2550       0.8398         0.1843       1.9104
 Sum       31.3924        3.2356      28.1568        -1.2774      32.6699

 Contributions to Isotropic shielding for atom   30 (    32.6913 ppm):
                         Standard Origin              Atomic Origin
 NLMO      Total    Paramagnetic  Diamagnetic   Paramagnetic  Diamagnetic
   12      -0.1101       -0.0423      -0.0677        -1.0856       0.9755
   23      -0.1239        0.0482      -0.1721        -1.0359       0.9120
   24       1.3850       -0.1906       1.5757         0.4823       0.9028
   29       1.9649        2.0361      -0.0712         0.1222       1.8427
   30      26.3939        0.2111      26.1828         0.3699      26.0240
   31       2.1408        0.2161       1.9247         0.2649       1.8758
 Sum       31.6507        2.2785      29.3721        -0.8822      32.5328

 Contributions to Isotropic shielding for atom   31 (    31.9158 ppm):
                         Standard Origin              Atomic Origin
 NLMO      Total    Paramagnetic  Diamagnetic   Paramagnetic  Diamagnetic
   24       1.5008       -0.6989       2.1996         0.5142       0.9866
   29       1.9405        1.5947       0.3458         0.0691       1.8714
   30       2.0905        0.3354       1.7550         0.2418       1.8487
   31      25.9125        0.3622      25.5503         0.3969      25.5156
   43      -1.0337        0.0108      -1.0444         0.3982      -1.4318
 Sum       30.4106        1.6042      28.8063         1.6201      28.7905
 
 1\1\GINC-COMPUTE-9-6\SP\RHF\STO-3G\C10H20O1\YTSAI.IQUIR\03-Aug-2021\0\
 \# rhf/STO-3G nmr pop=nbo\\comment\\0,1\C,0,0.302039634,-3.169002656,-
 0.995663875\C,0,-0.581502682,-2.173952163,-0.241154495\C,0,0.702385212
 ,-0.438699482,1.143375248\C,0,-1.332971803,0.243711935,-0.28326755\C,0
 ,-0.287246806,0.693585223,0.7633064\C,0,-0.86717655,-0.943896255,-1.11
 7102053\C,0,0.012731458,-1.804714512,1.132939389\O,0,1.830644903,-0.47
 674793,0.279575316\C,0,0.415550468,2.043220761,0.427561129\C,0,-0.5287
 39965,3.22472492,0.694474632\C,0,0.959346652,2.160299819,-1.001124314\
 H,0,1.290597131,-2.749160476,-1.207512701\H,0,0.44138765,-4.084993836,
 -0.41182393\H,0,-0.15801799,-3.449000316,-1.949340868\H,0,-1.536381748
 ,-2.682581108,-0.049915806\H,0,1.087081761,-0.236045807,2.150301377\H,
 0,-1.63376782,1.0662714,-0.939326953\H,0,-2.248701834,-0.052021071,0.2
 47151304\H,0,-0.868376974,0.874271238,1.680948302\H,0,-1.637318225,-1.
 198713186,-1.85546399\H,0,0.02262353,-0.658893356,-1.691335823\H,0,0.7
 13087412,-2.582258609,1.461285405\H,0,-0.798927862,-1.7869637,1.872182
 668\H,0,2.416591631,-1.187883223,0.589979688\H,0,1.263294027,2.1585859
 2,1.116279549\H,0,-1.404134841,3.201605172,0.037759606\H,0,-0.88124503
 7,3.215774485,1.731314789\H,0,-0.012274403,4.177024055,0.531708477\H,0
 ,1.507537906,3.102119747,-1.119130765\H,0,0.158736533,2.158933902,-1.7
 47083096\H,0,1.653148631,1.355399111,-1.250897061\\Version=EM64L-G09Re
 vC.01\State=1-A\HF=-459.6093862\RMSD=7.523e-09\Dipole=-0.0926426,-0.33
 28732,0.3994889\Quadrupole=-0.0077268,-0.1106667,0.1183935,-1.2626381,
 1.275499,-0.8178629\PG=C01 [X(C10H20O1)]\\@


 THE PROBLEM WITH THE LADDER OF SUCCESS IS YOU CAN'T
 CLIMB IT WHILE YOU'RE TWIDDLING YOUR THUMBS.
 Job cpu time:  0 days  0 hours  0 minutes 23.0 seconds.
 File lengths (MBytes):  RWF=      5 Int=      0 D2E=      0 Chk=      1 Scr=      1
 Normal termination of Gaussian 09 at Tue Aug  3 16:35:35 2021.
