 Entering Gaussian System, Link 0=g09
 Input=/home/ytsai.iquir/menthol/02_menthol_M0010_MMFF_NMR_rhf_STO-3G_nbo.gjc
 Output=/home/ytsai.iquir/menthol/02_menthol_M0010_MMFF_NMR_rhf_STO-3G_nbo.log
 Initial command:
 /share/apps/Gaussian09/EM64T.SSE4.2-enabled/g09/l1.exe /tmp/Gau-11827.inp -scrdir=/tmp/
 Entering Link 1 = /share/apps/Gaussian09/EM64T.SSE4.2-enabled/g09/l1.exe PID=     11828.
  
 Copyright (c) 1988,1990,1992,1993,1995,1998,2003,2009,2011,
            Gaussian, Inc.  All Rights Reserved.
  
 This is part of the Gaussian(R) 09 program.  It is based on
 the Gaussian(R) 03 system (copyright 2003, Gaussian, Inc.),
 the Gaussian(R) 98 system (copyright 1998, Gaussian, Inc.),
 the Gaussian(R) 94 system (copyright 1995, Gaussian, Inc.),
 the Gaussian 92(TM) system (copyright 1992, Gaussian, Inc.),
 the Gaussian 90(TM) system (copyright 1990, Gaussian, Inc.),
 the Gaussian 88(TM) system (copyright 1988, Gaussian, Inc.),
 the Gaussian 86(TM) system (copyright 1986, Carnegie Mellon
 University), and the Gaussian 82(TM) system (copyright 1983,
 Carnegie Mellon University). Gaussian is a federally registered
 trademark of Gaussian, Inc.
  
 This software contains proprietary and confidential information,
 including trade secrets, belonging to Gaussian, Inc.
  
 This software is provided under written license and may be
 used, copied, transmitted, or stored only in accord with that
 written license.
  
 The following legend is applicable only to US Government
 contracts under FAR:
  
                    RESTRICTED RIGHTS LEGEND
  
 Use, reproduction and disclosure by the US Government is
 subject to restrictions as set forth in subparagraphs (a)
 and (c) of the Commercial Computer Software - Restricted
 Rights clause in FAR 52.227-19.
  
 Gaussian, Inc.
 340 Quinnipiac St., Bldg. 40, Wallingford CT 06492
  
  
 ---------------------------------------------------------------
 Warning -- This program may not be used in any manner that
 competes with the business of Gaussian, Inc. or will provide
 assistance to any competitor of Gaussian, Inc.  The licensee
 of this program is prohibited from giving any competitor of
 Gaussian, Inc. access to this program.  By using this program,
 the user acknowledges that Gaussian, Inc. is engaged in the
 business of creating and licensing software in the field of
 computational chemistry and represents and warrants to the
 licensee that it is not a competitor of Gaussian, Inc. and that
 it will not use this program in any manner prohibited above.
 ---------------------------------------------------------------
  

 Cite this work as:
 Gaussian 09, Revision C.01,
 M. J. Frisch, G. W. Trucks, H. B. Schlegel, G. E. Scuseria, 
 M. A. Robb, J. R. Cheeseman, G. Scalmani, V. Barone, B. Mennucci, 
 G. A. Petersson, H. Nakatsuji, M. Caricato, X. Li, H. P. Hratchian, 
 A. F. Izmaylov, J. Bloino, G. Zheng, J. L. Sonnenberg, M. Hada, 
 M. Ehara, K. Toyota, R. Fukuda, J. Hasegawa, M. Ishida, T. Nakajima, 
 Y. Honda, O. Kitao, H. Nakai, T. Vreven, J. A. Montgomery, Jr., 
 J. E. Peralta, F. Ogliaro, M. Bearpark, J. J. Heyd, E. Brothers, 
 K. N. Kudin, V. N. Staroverov, T. Keith, R. Kobayashi, J. Normand, 
 K. Raghavachari, A. Rendell, J. C. Burant, S. S. Iyengar, J. Tomasi, 
 M. Cossi, N. Rega, J. M. Millam, M. Klene, J. E. Knox, J. B. Cross, 
 V. Bakken, C. Adamo, J. Jaramillo, R. Gomperts, R. E. Stratmann, 
 O. Yazyev, A. J. Austin, R. Cammi, C. Pomelli, J. W. Ochterski, 
 R. L. Martin, K. Morokuma, V. G. Zakrzewski, G. A. Voth, 
 P. Salvador, J. J. Dannenberg, S. Dapprich, A. D. Daniels, 
 O. Farkas, J. B. Foresman, J. V. Ortiz, J. Cioslowski, 
 and D. J. Fox, Gaussian, Inc., Wallingford CT, 2010.
 
 ******************************************
 Gaussian 09:  EM64L-G09RevC.01 23-Sep-2011
                 3-Aug-2021 
 ******************************************
 %nprocshared=4
 Will use up to    4 processors via shared memory.
 ------------------------
 # rhf/STO-3G nmr pop=nbo
 ------------------------
 1/38=1/1;
 2/12=2,17=6,18=5,40=1/2;
 3/6=3,11=1,16=1,25=1,30=1,116=1/1,2,8,3;
 4//1;
 5/5=2,38=5/2;
 8/6=1,10=90,11=11/1;
 10/13=100,45=16/2;
 6/7=2,8=2,9=2,10=2,28=1,64=1/1,7;
 99/9=1/99;
 -------
 comment
 -------
 Charge =  0 Multiplicity = 1
 Symbolic Z-Matrix:
 6                    -0.59192   0.2319   -3.30673 
 6                    -1.02981  -0.12645  -1.88803 
 6                    -0.47027  -1.49599   0.16595 
 6                    -1.39702   0.7848    0.45565 
 6                    -0.38843  -0.22533   1.04857 
 6                    -1.08773   1.12796  -1.0033 
 6                    -0.11473  -1.20561  -1.29289 
 8                     0.34185  -2.5556    0.6462 
 6                     1.04468   0.38512   1.2305 
 6                     2.03897  -0.58265   1.8845 
 6                     1.01368   1.66921   2.07518 
 1                    -0.59575  -0.65445  -3.94982 
 1                    -1.27072   0.96921  -3.74808 
 1                     0.41901   0.6533   -3.31671 
 1                    -2.04494  -0.54217  -1.9476 
 1                    -1.50109  -1.87342   0.19439 
 1                    -1.4479    1.70019   1.05255 
 1                    -2.40457   0.35014   0.50704 
 1                    -0.74037  -0.50074   2.05271 
 1                    -0.1409    1.67745  -1.06305 
 1                    -1.8622    1.80618  -1.38211 
 1                     0.93922  -0.91137  -1.37243 
 1                    -0.19955  -2.13057  -1.87804 
 1                     0.07347  -2.73702   1.56304 
 1                     1.45687   0.65578   0.25168 
 1                     1.61984  -1.0339    2.78974 
 1                     2.334    -1.37841   1.19571 
 1                     2.96488  -0.06781   2.16491 
 1                     0.51499   1.49951   3.03527 
 1                     0.49856   2.48129   1.55423 
 1                     2.02786   2.02945   2.28099 
 
                          Input orientation:                          
 ---------------------------------------------------------------------
 Center     Atomic      Atomic             Coordinates (Angstroms)
 Number     Number       Type             X           Y           Z
 ---------------------------------------------------------------------
      1          6           0       -0.591921    0.231902   -3.306731
      2          6           0       -1.029810   -0.126447   -1.888030
      3          6           0       -0.470273   -1.495991    0.165949
      4          6           0       -1.397022    0.784796    0.455649
      5          6           0       -0.388431   -0.225328    1.048571
      6          6           0       -1.087732    1.127965   -1.003296
      7          6           0       -0.114726   -1.205612   -1.292888
      8          8           0        0.341850   -2.555598    0.646196
      9          6           0        1.044679    0.385119    1.230504
     10          6           0        2.038971   -0.582655    1.884504
     11          6           0        1.013682    1.669207    2.075178
     12          1           0       -0.595751   -0.654448   -3.949819
     13          1           0       -1.270717    0.969212   -3.748084
     14          1           0        0.419007    0.653301   -3.316713
     15          1           0       -2.044937   -0.542171   -1.947602
     16          1           0       -1.501089   -1.873420    0.194386
     17          1           0       -1.447900    1.700194    1.052547
     18          1           0       -2.404574    0.350136    0.507042
     19          1           0       -0.740368   -0.500743    2.052706
     20          1           0       -0.140895    1.677453   -1.063054
     21          1           0       -1.862198    1.806185   -1.382106
     22          1           0        0.939223   -0.911371   -1.372426
     23          1           0       -0.199552   -2.130567   -1.878042
     24          1           0        0.073468   -2.737023    1.563041
     25          1           0        1.456872    0.655783    0.251675
     26          1           0        1.619842   -1.033904    2.789736
     27          1           0        2.333998   -1.378413    1.195709
     28          1           0        2.964884   -0.067807    2.164914
     29          1           0        0.514991    1.499509    3.035269
     30          1           0        0.498564    2.481286    1.554229
     31          1           0        2.027862    2.029450    2.280987
 ---------------------------------------------------------------------
                    Distance matrix (angstroms):
                    1          2          3          4          5
     1  C    0.000000
     2  C    1.527376   0.000000
     3  C    3.880711   2.531316   0.000000
     4  C    3.887080   2.541267   2.478866   0.000000
     5  C    4.383962   3.007452   1.549291   1.545691   0.000000
     6  C    2.520828   1.536118   2.938287   1.530342   2.555500
     7  C    2.519867   1.534982   1.529359   2.943364   2.553096
     8  O    4.926228   3.768889   1.418784   3.770704   2.474949
     9  C    4.825810   3.780272   2.639494   2.592691   1.568295
    10  C    5.876565   4.884419   3.175519   3.964542   2.592055
    11  C    5.797306   4.807000   3.983184   3.035877   2.570818
    12  H    1.095077   2.172134   4.202795   4.703362   5.021058
    13  H    1.095072   2.172167   4.694421   4.209672   5.021280
    14  H    1.095285   2.179040   4.187984   4.188791   4.525445
    15  H    2.134872   1.098571   2.802934   2.820683   3.438234
    16  H    4.185307   2.758709   1.098109   2.673051   2.164220
    17  H    4.678877   3.486891   3.457948   1.093997   2.197754
    18  H    4.224282   2.802406   2.695562   1.098514   2.165467
    19  H    5.411319   3.969039   2.150191   2.152765   1.099091
    20  H    2.706867   2.173663   3.419018   2.163597   2.853210
    21  H    2.792159   2.164230   3.903625   2.153362   3.493883
    22  H    2.719009   2.181523   2.166808   3.417145   2.845091
    23  H    2.788613   2.169314   2.157285   3.921656   3.497238
    24  H    5.742120   4.465671   1.946196   3.973898   2.605118
    25  H    4.127891   3.372508   2.889873   2.864081   2.194662
    26  H    6.607653   5.452121   3.386202   4.225766   2.778239
    27  H    5.605897   4.732025   2.989676   4.375805   2.960215
    28  H    6.532961   5.690990   4.223253   4.761800   3.537761
    29  H    6.561482   5.410084   4.263421   3.289535   2.781762
    30  H    5.466060   4.580976   4.322579   2.770957   2.892785
    31  H    6.427833   5.601602   4.810696   4.075641   3.527229
                    6          7          8          9         10
     6  C    0.000000
     7  C    2.544835   0.000000
     8  O    4.281724   2.406443   0.000000
     9  C    3.176297   3.200336   3.079480   0.000000
    10  C    4.587143   3.888741   2.882036   1.533922   0.000000
    11  C    3.766416   4.569656   4.510247   1.537309   2.481624
    12  H    3.478655   2.755803   5.061306   5.532401   6.402049
    13  H    2.755458   3.477667   5.859552   5.521645   6.714788
    14  H    2.801334   2.799339   5.099768   4.597888   5.586102
    15  H    2.144133   2.143484   4.059363   4.528350   5.600445
    16  H    3.257855   2.140082   2.016413   3.557454   4.129722
    17  H    2.164176   3.965114   4.634661   2.823835   4.249920
    18  H    2.149468   3.302046   4.000687   3.524482   4.744744
    19  H    3.480301   3.475811   2.715122   2.155728   2.785629
    20  H    1.096362   2.892330   4.590566   2.887235   4.306739
    21  H    1.096939   3.483179   5.291217   4.158737   5.621069
    22  H    2.898912   1.097138   2.671174   2.909854   3.453272
    23  H    3.488849   1.097789   2.616399   4.188060   4.643681
    24  H    4.782530   3.246069   0.972393   3.286579   2.933913
    25  H    2.876269   2.884508   3.422263   1.096023   2.130421
    26  H    5.137288   4.439147   2.922940   2.185324   1.094870
    27  H    4.777634   3.495600   2.378315   2.184857   1.093028
    28  H    5.281204   4.768122   3.921213   2.182991   1.095907
    29  H    4.360822   5.142680   4.709727   2.186232   2.825275
    30  H    3.299810   4.698448   5.120476   2.190195   3.445238
    31  H    4.615855   5.275309   5.151489   2.184945   2.642047
                   11         12         13         14         15
    11  C    0.000000
    12  H    6.655091   0.000000
    13  H    6.294351   1.769900   0.000000
    14  H    5.518895   1.772220   1.772300   0.000000
    15  H    5.516168   2.474191   2.474960   3.061803   0.000000
    16  H    4.734096   4.413611   4.865871   4.732748   2.579944
    17  H    2.665731   5.594118   4.859196   4.865363   3.792828
    18  H    3.985408   4.913720   4.446908   4.762943   2.636443
    19  H    2.790320   6.006234   6.007596   5.613077   4.207860
    20  H    3.343892   3.738726   2.997914   2.537983   3.055247
    21  H    4.499140   3.775149   2.578415   3.205580   2.422386
    22  H    4.307075   3.010832   3.750224   2.549329   3.061429
    23  H    5.615885   2.574521   3.775325   3.194105   2.435834
    24  H    4.534440   5.930986   6.614458   5.951948   4.650766
    25  H    2.132747   4.856184   4.851398   3.716258   4.305181
    26  H    2.860915   7.104537   7.423671   6.448053   6.009557
    27  H    3.435796   5.965233   6.553350   5.306318   5.454794
    28  H    2.613897   7.100157   7.347058   6.086848   6.498932
    29  H    1.095109   7.393560   7.034475   6.408819   5.962440
    30  H    1.093712   6.428444   5.790617   5.203262   5.279537
    31  H    1.095761   7.273898   6.953735   5.984685   6.409516
                   16         17         18         19         20
    16  H    0.000000
    17  H    3.675594   0.000000
    18  H    2.420381   1.742256   0.000000
    19  H    2.432343   2.518937   2.425419   0.000000
    20  H    4.004995   2.486875   3.057976   3.848619   0.000000
    21  H    4.019356   2.471925   2.446044   4.286998   1.755349
    22  H    3.055415   4.289419   4.037918   3.836817   2.822122
    23  H    2.460707   4.982113   4.087131   4.289474   3.894696
    24  H    2.257931   4.718480   4.097118   2.429618   5.141004
    25  H    3.892260   3.189027   3.881933   3.067430   2.307636
    26  H    4.144978   4.461408   4.829305   2.529439   5.029478
    27  H    3.994442   4.878634   5.090797   3.310056   4.534912
    28  H    5.204626   4.882197   5.635095   3.732146   4.807450
    29  H    4.848901   2.797213   4.029497   2.557805   4.154287
    30  H    4.981089   2.156505   3.750548   3.267404   2.811623
    31  H    5.660371   3.701134   5.060975   3.757271   4.001252
                   21         22         23         24         25
    21  H    0.000000
    22  H    3.902968   0.000000
    23  H    4.302134   1.743243   0.000000
    24  H    5.749906   3.563636   3.504766   0.000000
    25  H    3.874131   2.315520   3.878554   3.891608   0.000000
    26  H    6.131474   4.219223   5.128452   2.607042   3.053416
    27  H    5.864712   2.959534   4.053709   2.662846   2.408008
    28  H    6.276457   4.162652   5.533003   3.980860   2.541291
    29  H    5.025761   5.041833   6.150499   4.506728   3.057352
    30  H    3.827665   4.502177   5.791116   5.235602   2.438741
    31  H    5.347959   4.814663   6.290042   5.201381   2.516167
                   26         27         28         29         30
    26  H    0.000000
    27  H    1.780345   0.000000
    28  H    1.769995   1.747874   0.000000
    29  H    2.774736   3.869781   3.035781   0.000000
    30  H    3.891054   4.288896   3.599103   1.776974   0.000000
    31  H    3.132003   3.589579   2.299993   1.771597   1.752451
                   31
    31  H    0.000000
 Stoichiometry    C10H20O
 Framework group  C1[X(C10H20O)]
 Deg. of freedom    87
 Full point group                 C1      NOp   1
 Largest Abelian subgroup         C1      NOp   1
 Largest concise Abelian subgroup C1      NOp   1
                         Standard orientation:                         
 ---------------------------------------------------------------------
 Center     Atomic      Atomic             Coordinates (Angstroms)
 Number     Number       Type             X           Y           Z
 ---------------------------------------------------------------------
      1          6           0        3.227745   -0.248001   -1.018690
      2          6           0        2.150044   -0.056600    0.046582
      3          6           0        0.062830    1.233029    0.669442
      4          6           0        0.209564   -1.172513    1.249625
      5          6           0       -0.766914   -0.070774    0.778646
      6          6           0        1.380302   -1.364751    0.283000
      7          6           0        1.213080    1.099587   -0.329585
      8          8           0       -0.725563    2.363008    0.331018
      9          6           0       -1.565444   -0.478413   -0.508106
     10          6           0       -2.590430    0.575200   -0.946538
     11          6           0       -2.311233   -1.809164   -0.317797
     12          1           0        3.807539    0.671090   -1.153978
     13          1           0        3.922772   -1.043273   -0.729447
     14          1           0        2.788499   -0.516817   -1.985360
     15          1           0        2.653508    0.210855    0.985651
     16          1           0        0.494260    1.454282    1.654714
     17          1           0       -0.304643   -2.124978    1.408465
     18          1           0        0.610205   -0.893006    2.233543
     19          1           0       -1.511064    0.080112    1.573301
     20          1           0        1.013851   -1.765805   -0.669302
     21          1           0        2.061694   -2.119916    0.693738
     22          1           0        0.817369    0.967352   -1.344296
     23          1           0        1.776845    2.041012   -0.361670
     24          1           0       -1.428582    2.439309    0.998469
     25          1           0       -0.870652   -0.617646   -1.344256
     26          1           0       -3.215862    0.896795   -0.107400
     27          1           0       -2.102093    1.451344   -1.380829
     28          1           0       -3.252585    0.181599   -1.726050
     29          1           0       -2.951098   -1.780805    0.570479
     30          1           0       -1.617411   -2.648981   -0.220207
     31          1           0       -2.945314   -2.032187   -1.183183
 ---------------------------------------------------------------------
 Rotational constants (GHZ):      1.4523601      0.8266582      0.6560048
 Standard basis: STO-3G (5D, 7F)
 There are    75 symmetry adapted basis functions of A   symmetry.
 Integral buffers will be    131072 words long.
 Raffenetti 1 integral format.
 Two-electron integral symmetry is turned on.
    75 basis functions,   225 primitive gaussians,    75 cartesian basis functions
    44 alpha electrons       44 beta electrons
       nuclear repulsion energy       698.8012223491 Hartrees.
 NAtoms=   31 NActive=   31 NUniq=   31 SFac= 1.00D+00 NAtFMM=   60 NAOKFM=F Big=F
 One-electron integrals computed using PRISM.
 NBasis=    75 RedAO= T  NBF=    75
 NBsUse=    75 1.00D-06 NBFU=    75
 Harris functional with IExCor=  205 diagonalized for initial guess.
 ExpMin= 1.69D-01 ExpMax= 1.31D+02 ExpMxC= 1.31D+02 IAcc=1 IRadAn=         1 AccDes= 0.00D+00
 HarFok:  IExCor=  205 AccDes= 0.00D+00 IRadAn=         1 IDoV= 1
 ScaDFX=  1.000000  1.000000  1.000000  1.000000
 FoFCou: FMM=F IPFlag=           0 FMFlag=      100000 FMFlg1=           0
         NFxFlg=           0 DoJE=T BraDBF=F KetDBF=T FulRan=T
         Omega=  0.000000  0.000000  1.000000  0.000000  0.000000 ICntrl=     500 IOpCl=  0
         NMat0=    1 NMatS0=    1 NMatT0=    0 NMatD0=    1 NMtDS0=    0 NMtDT0=    0
         I1Cent=           4 NGrid=           0.
 Petite list used in FoFCou.
 Initial guess orbital symmetries:
       Occupied  (A) (A) (A) (A) (A) (A) (A) (A) (A) (A) (A) (A)
                 (A) (A) (A) (A) (A) (A) (A) (A) (A) (A) (A) (A)
                 (A) (A) (A) (A) (A) (A) (A) (A) (A) (A) (A) (A)
                 (A) (A) (A) (A) (A) (A) (A) (A)
       Virtual   (A) (A) (A) (A) (A) (A) (A) (A) (A) (A) (A) (A)
                 (A) (A) (A) (A) (A) (A) (A) (A) (A) (A) (A) (A)
                 (A) (A) (A) (A) (A) (A) (A)
 The electronic state of the initial guess is 1-A.
 Requested convergence on RMS density matrix=1.00D-08 within 128 cycles.
 Requested convergence on MAX density matrix=1.00D-06.
 Requested convergence on             energy=1.00D-06.
 No special actions if energy rises.
 Keep R1 ints in memory in canonical form, NReq=4898789.
 SCF Done:  E(RHF) =  -459.617660770     A.U. after   10 cycles
             Convg  =    0.9050D-08             -V/T =  2.0090
 Range of M.O.s used for correlation:     1    75
 NBasis=    75 NAE=    44 NBE=    44 NFC=     0 NFV=     0
 NROrb=     75 NOA=    44 NOB=    44 NVA=    31 NVB=    31
          Differentiating once with respect to magnetic field using GIAOs.
          Electric field/nuclear overlap derivatives assumed to be zero.
          Keep R3 ints in memory in canonical form, NReq=4863575.
 FoFCou: FMM=F IPFlag=           0 FMFlag=           0 FMFlg1=           0
         NFxFlg=           0 DoJE=F BraDBF=F KetDBF=T FulRan=T
         Omega=  0.000000  0.000000  1.000000  0.000000  0.000000 ICntrl=    6100 IOpCl=  0
         NMat0=    1 NMatS0=    1 NMatT0=    0 NMatD0=    1 NMtDS0=    0 NMtDT0=    0
         I1Cent=           7 NGrid=          31.
 Symmetry not used in FoFCou.
          There are     3 degrees of freedom in the 1st order CPHF.  IDoFFX=0.
      3 vectors produced by pass  0 Test12= 4.55D-14 3.33D-08 XBig12= 6.68D+00 4.25D-01.
 AX will form     3 AO Fock derivatives at one time.
      3 vectors produced by pass  1 Test12= 4.55D-14 3.33D-08 XBig12= 1.10D-02 1.33D-02.
      3 vectors produced by pass  2 Test12= 4.55D-14 3.33D-08 XBig12= 7.23D-05 2.08D-03.
      3 vectors produced by pass  3 Test12= 4.55D-14 3.33D-08 XBig12= 1.50D-06 2.97D-04.
      3 vectors produced by pass  4 Test12= 4.55D-14 3.33D-08 XBig12= 1.90D-08 2.67D-05.
      3 vectors produced by pass  5 Test12= 4.55D-14 3.33D-08 XBig12= 2.66D-10 2.61D-06.
      3 vectors produced by pass  6 Test12= 4.55D-14 3.33D-08 XBig12= 3.26D-12 2.48D-07.
 Inverted reduced A of dimension    21 with in-core refinement.
 Calculating GIAO nuclear magnetic shielding tensors.
 SCF GIAO Magnetic shielding tensor (ppm):
      1  C    Isotropic =   221.1944   Anisotropy =    28.0233
   XX=   229.4096   YX=    -1.6468   ZX=   -11.9057
   XY=    -2.6423   YY=   212.2928   ZY=     1.7095
   XZ=   -14.9957   YZ=     1.5649   ZZ=   221.8806
   Eigenvalues:   211.6774   212.0291   239.8766
      2  C    Isotropic =   214.5744   Anisotropy =     8.1361
   XX=   218.5376   YX=    -0.2851   ZX=    -2.9298
   XY=    -0.7431   YY=   215.8834   ZY=    -2.3577
   XZ=    -4.9167   YZ=    -1.9907   ZZ=   209.3023
   Eigenvalues:   207.2879   216.4369   219.9985
      3  C    Isotropic =   186.4066   Anisotropy =    40.3528
   XX=   191.7493   YX=   -16.4623   ZX=     3.4454
   XY=   -15.0116   YY=   197.8660   ZY=    -7.3010
   XZ=     6.4059   YZ=   -11.4627   ZZ=   169.6044
   Eigenvalues:   166.7718   179.1394   213.3084
      4  C    Isotropic =   217.0049   Anisotropy =    14.7107
   XX=   222.3501   YX=    -6.9627   ZX=    -0.4108
   XY=    -7.0976   YY=   215.4349   ZY=    -4.1987
   XZ=    -0.8702   YZ=    -1.8467   ZZ=   213.2297
   Eigenvalues:   209.0225   215.1802   226.8121
      5  C    Isotropic =   208.5848   Anisotropy =    11.2934
   XX=   208.8930   YX=     4.3481   ZX=     5.3594
   XY=     2.1750   YY=   206.8194   ZY=     1.8015
   XZ=     2.8056   YZ=     5.3612   ZZ=   210.0420
   Eigenvalues:   204.2867   205.3539   216.1137
      6  C    Isotropic =   217.8436   Anisotropy =    18.3486
   XX=   221.0958   YX=     5.0009   ZX=    -8.3698
   XY=     7.2307   YY=   220.4092   ZY=    -3.7982
   XZ=    -5.9009   YZ=    -2.9898   ZZ=   212.0260
   Eigenvalues:   208.1063   215.3486   230.0761
      7  C    Isotropic =   217.2282   Anisotropy =    21.9127
   XX=   223.5779   YX=    -9.8677   ZX=    -6.4935
   XY=   -10.0116   YY=   218.0586   ZY=    -1.2954
   XZ=    -4.4765   YZ=    -0.4281   ZZ=   210.0480
   Eigenvalues:   205.9427   213.9051   231.8367
      8  O    Isotropic =   355.7771   Anisotropy =    89.2575
   XX=   372.8495   YX=    -4.8767   ZX=   -37.0184
   XY=    16.5694   YY=   327.2747   ZY=     6.6073
   XZ=   -53.1511   YZ=    13.5687   ZZ=   367.2071
   Eigenvalues:   314.6142   337.4350   415.2821
      9  C    Isotropic =   215.2385   Anisotropy =    13.2924
   XX=   214.4753   YX=     2.4342   ZX=     8.5750
   XY=     2.3693   YY=   217.6974   ZY=     0.2174
   XZ=    10.5113   YZ=     0.0619   ZZ=   213.5426
   Eigenvalues:   204.2719   217.3434   224.1000
     10  C    Isotropic =   221.0880   Anisotropy =    25.6721
   XX=   222.8593   YX=   -11.5978   ZX=    10.5196
   XY=    -9.5939   YY=   226.6208   ZY=    -2.9567
   XZ=     9.0850   YZ=    -1.1039   ZZ=   213.7839
   Eigenvalues:   206.5021   218.5591   238.2027
     11  C    Isotropic =   220.7880   Anisotropy =    26.3765
   XX=   217.6158   YX=    13.4177   ZX=     2.8635
   XY=    10.5947   YY=   231.2547   ZY=    -2.6220
   XZ=     4.6711   YZ=    -5.8265   ZZ=   213.4935
   Eigenvalues:   206.4558   217.5358   238.3723
     12  H    Isotropic =    32.3621   Anisotropy =    14.0238
   XX=    35.8879   YX=     5.6349   ZX=    -4.1013
   XY=     5.3893   YY=    33.3446   ZY=    -1.7845
   XZ=    -4.1790   YZ=    -2.1031   ZZ=    27.8538
   Eigenvalues:    26.0726    29.3024    41.7113
     13  H    Isotropic =    32.4171   Anisotropy =    14.0629
   XX=    37.5037   YX=    -6.4081   ZX=    -1.0969
   XY=    -6.4163   YY=    32.1694   ZY=    -1.1625
   XZ=    -1.2766   YZ=    -0.9761   ZZ=    27.5782
   Eigenvalues:    26.1735    29.2855    41.7924
     14  H    Isotropic =    32.6217   Anisotropy =    10.9276
   XX=    31.0127   YX=     0.0484   ZX=    -0.8312
   XY=    -0.0190   YY=    27.7481   ZY=     3.0100
   XZ=    -0.8073   YZ=     2.9390   ZZ=    39.1043
   Eigenvalues:    27.0051    30.9533    39.9068
     15  H    Isotropic =    32.7244   Anisotropy =    12.1563
   XX=    34.8032   YX=     1.7705   ZX=     5.0580
   XY=     1.4534   YY=    28.0042   ZY=     2.4080
   XZ=     5.1556   YZ=     2.3590   ZZ=    35.3659
   Eigenvalues:    27.2976    30.0471    40.8286
     16  H    Isotropic =    31.9420   Anisotropy =     9.9066
   XX=    29.8573   YX=     0.7357   ZX=     3.0831
   XY=    -0.3538   YY=    30.8299   ZY=     3.6578
   XZ=     3.2287   YZ=     4.5559   ZZ=    35.1388
   Eigenvalues:    27.2082    30.0715    38.5464
     17  H    Isotropic =    32.3465   Anisotropy =    12.5526
   XX=    31.7445   YX=     3.9180   ZX=    -0.3771
   XY=     4.1431   YY=    36.9884   ZY=    -4.9616
   XZ=     0.0958   YZ=    -4.6619   ZZ=    28.3067
   Eigenvalues:    25.7109    30.6138    40.7150
     18  H    Isotropic =    32.7236   Anisotropy =    13.2664
   XX=    29.6897   YX=    -0.6112   ZX=     3.3024
   XY=    -0.5246   YY=    27.8384   ZY=    -0.6844
   XZ=     3.1168   YZ=    -0.7891   ZZ=    40.6427
   Eigenvalues:    27.6747    28.9283    41.5679
     19  H    Isotropic =    33.0900   Anisotropy =    11.6271
   XX=    34.5580   YX=    -0.9189   ZX=    -5.0222
   XY=    -0.8155   YY=    28.7402   ZY=     1.8030
   XZ=    -5.4619   YZ=     1.6274   ZZ=    35.9717
   Eigenvalues:    28.3199    30.1086    40.8414
     20  H    Isotropic =    32.7846   Anisotropy =     8.7921
   XX=    32.6506   YX=     1.2016   ZX=     0.4551
   XY=     1.0248   YY=    31.9064   ZY=     5.4947
   XZ=     0.5197   YZ=     5.5351   ZZ=    33.7970
   Eigenvalues:    27.2024    32.5054    38.6461
     21  H    Isotropic =    32.5358   Anisotropy =    14.5748
   XX=    33.8921   YX=    -6.0110   ZX=     0.6725
   XY=    -6.1184   YY=    36.1656   ZY=    -4.2555
   XZ=     0.8654   YZ=    -4.5661   ZZ=    27.5496
   Eigenvalues:    25.2368    30.1183    42.2523
     22  H    Isotropic =    32.4133   Anisotropy =     8.2673
   XX=    32.3943   YX=    -0.5097   ZX=     1.0831
   XY=    -0.5471   YY=    27.4196   ZY=    -1.4709
   XZ=     1.0047   YZ=    -1.8817   ZZ=    37.4261
   Eigenvalues:    27.1220    32.1931    37.9249
     23  H    Isotropic =    32.0158   Anisotropy =    13.9204
   XX=    32.6036   YX=     4.6211   ZX=    -2.7138
   XY=     4.5351   YY=    38.3258   ZY=    -1.6088
   XZ=    -2.5127   YZ=    -1.5057   ZZ=    25.1181
   Eigenvalues:    24.2949    30.4565    41.2961
     24  H    Isotropic =    35.0557   Anisotropy =    17.2334
   XX=    37.4744   YX=    -6.3027   ZX=    -7.3108
   XY=    -5.3586   YY=    34.5915   ZY=     2.1535
   XZ=    -7.8416   YZ=     3.3872   ZZ=    33.1010
   Eigenvalues:    27.0713    31.5511    46.5446
     25  H    Isotropic =    32.5285   Anisotropy =     8.6234
   XX=    35.1929   YX=    -0.0445   ZX=    -2.9957
   XY=    -0.1828   YY=    27.5860   ZY=     1.8880
   XZ=    -3.2372   YZ=     1.5941   ZZ=    34.8065
   Eigenvalues:    27.1387    32.1693    38.2774
     26  H    Isotropic =    32.8679   Anisotropy =    11.2325
   XX=    36.5078   YX=    -4.1812   ZX=    -2.6093
   XY=    -4.4346   YY=    30.7234   ZY=     2.9708
   XZ=    -2.9003   YZ=     2.4777   ZZ=    31.3726
   Eigenvalues:    27.8773    30.3703    40.3563
     27  H    Isotropic =    31.7711   Anisotropy =     9.9472
   XX=    30.0840   YX=     1.6828   ZX=     2.5204
   XY=     1.9166   YY=    35.4777   ZY=    -5.0363
   XZ=     2.1431   YZ=    -4.9787   ZZ=    29.7515
   Eigenvalues:    25.1236    31.7871    38.4025
     28  H    Isotropic =    32.6085   Anisotropy =    14.2230
   XX=    34.2426   YX=     0.6542   ZX=     8.1157
   XY=     0.3687   YY=    29.5985   ZY=     0.7231
   XZ=     7.7288   YZ=     0.5736   ZZ=    33.9845
   Eigenvalues:    26.1871    29.5479    42.0906
     29  H    Isotropic =    32.6800   Anisotropy =    11.8843
   XX=    34.7623   YX=     3.7206   ZX=    -4.9501
   XY=     3.7009   YY=    30.1819   ZY=    -1.9473
   XZ=    -5.0870   YZ=    -1.8269   ZZ=    33.0959
   Eigenvalues:    27.8173    29.6199    40.6029
     30  H    Isotropic =    32.4051   Anisotropy =    10.5486
   XX=    32.1111   YX=    -1.6871   ZX=     2.1422
   XY=    -2.0067   YY=    38.9439   ZY=     0.1266
   XZ=     2.5649   YZ=    -0.1240   ZZ=    26.1602
   Eigenvalues:    25.3140    32.4637    39.4375
     31  H    Isotropic =    32.5674   Anisotropy =    14.0889
   XX=    32.7473   YX=     4.1225   ZX=     6.4673
   XY=     4.2289   YY=    32.0270   ZY=     3.3895
   XZ=     6.1225   YZ=     3.2391   ZZ=    32.9277
   Eigenvalues:    26.4190    29.3231    41.9600
 End of Minotr Frequency-dependent properties file   721 does not exist.
 End of Minotr Frequency-dependent properties file   722 does not exist.

 **********************************************************************

            Population analysis using the SCF density.

 **********************************************************************

 Orbital symmetries:
       Occupied  (A) (A) (A) (A) (A) (A) (A) (A) (A) (A) (A) (A)
                 (A) (A) (A) (A) (A) (A) (A) (A) (A) (A) (A) (A)
                 (A) (A) (A) (A) (A) (A) (A) (A) (A) (A) (A) (A)
                 (A) (A) (A) (A) (A) (A) (A) (A)
       Virtual   (A) (A) (A) (A) (A) (A) (A) (A) (A) (A) (A) (A)
                 (A) (A) (A) (A) (A) (A) (A) (A) (A) (A) (A) (A)
                 (A) (A) (A) (A) (A) (A) (A)
 The electronic state is 1-A.
 Alpha  occ. eigenvalues --  -20.23797 -11.08508 -11.04781 -11.04591 -11.04402
 Alpha  occ. eigenvalues --  -11.03770 -11.03698 -11.03586 -11.03168 -11.02942
 Alpha  occ. eigenvalues --  -11.02374  -1.27954  -1.08333  -1.03284  -0.97117
 Alpha  occ. eigenvalues --   -0.94811  -0.88397  -0.87947  -0.79136  -0.77489
 Alpha  occ. eigenvalues --   -0.74921  -0.69260  -0.62652  -0.60530  -0.58364
 Alpha  occ. eigenvalues --   -0.57233  -0.56888  -0.54740  -0.54072  -0.51659
 Alpha  occ. eigenvalues --   -0.50873  -0.49789  -0.49191  -0.47761  -0.47155
 Alpha  occ. eigenvalues --   -0.46007  -0.43576  -0.42968  -0.41953  -0.41312
 Alpha  occ. eigenvalues --   -0.39908  -0.38768  -0.36568  -0.32622
 Alpha virt. eigenvalues --    0.52024   0.55432   0.58001   0.60524   0.61136
 Alpha virt. eigenvalues --    0.61846   0.62967   0.64347   0.65162   0.66279
 Alpha virt. eigenvalues --    0.69659   0.69942   0.70338   0.71862   0.72846
 Alpha virt. eigenvalues --    0.73408   0.73651   0.74364   0.75861   0.76277
 Alpha virt. eigenvalues --    0.76485   0.76783   0.77884   0.79360   0.80076
 Alpha virt. eigenvalues --    0.81559   0.82209   0.82354   0.83557   0.84068
 Alpha virt. eigenvalues --    0.85144
          Condensed to atoms (all electrons):
              1          2          3          4          5          6
     1  C    4.738630   0.365896   0.000703   0.000716  -0.000001  -0.024076
     2  C    0.365896   4.742853  -0.020387  -0.021979  -0.002888   0.363501
     3  C    0.000703  -0.020387   4.742052  -0.024272   0.353765  -0.004101
     4  C    0.000716  -0.021979  -0.024272   4.759495   0.358979   0.363228
     5  C   -0.000001  -0.002888   0.353765   0.358979   4.794257  -0.021374
     6  C   -0.024076   0.363501  -0.004101   0.363228  -0.021374   4.755975
     7  C   -0.024111   0.363086   0.360632  -0.003536  -0.022604  -0.022359
     8  O   -0.000001   0.000227   0.268436   0.000243  -0.016413   0.000001
     9  C    0.000000   0.000084  -0.017380  -0.019208   0.357834  -0.001656
    10  C    0.000000   0.000000  -0.000830   0.000551  -0.019882   0.000004
    11  C    0.000000   0.000000   0.000522  -0.003170  -0.020756  -0.000011
    12  H    0.382436  -0.020263   0.000012  -0.000017   0.000000   0.001281
    13  H    0.382395  -0.020294  -0.000016   0.000013   0.000000  -0.002195
    14  H    0.382230  -0.020785   0.000008   0.000009   0.000002  -0.002220
    15  H   -0.024086   0.381521  -0.001643  -0.001431   0.000061  -0.024525
    16  H    0.000005  -0.001915   0.375526  -0.002448  -0.026195   0.000095
    17  H   -0.000015   0.001216   0.001206   0.383201  -0.019838  -0.021278
    18  H    0.000005  -0.001910  -0.002576   0.380829  -0.021766  -0.023164
    19  H    0.000001   0.000015  -0.023972  -0.022097   0.378419   0.001199
    20  H   -0.002909  -0.022234   0.000061  -0.022368  -0.001531   0.381305
    21  H   -0.001610  -0.021305   0.000028  -0.021623   0.001194   0.382413
    22  H   -0.002790  -0.021065  -0.022113   0.000102  -0.001838  -0.001164
    23  H   -0.001708  -0.020445  -0.021343   0.000015   0.001173   0.001182
    24  H    0.000000  -0.000040  -0.041611  -0.000002  -0.002758   0.000000
    25  H    0.000004   0.000027  -0.001371  -0.001281  -0.022151  -0.000543
    26  H    0.000000   0.000000   0.000027   0.000013  -0.002739   0.000000
    27  H    0.000000   0.000000  -0.000162  -0.000003  -0.000617   0.000001
    28  H    0.000000   0.000000   0.000000  -0.000012   0.001049   0.000000
    29  H    0.000000   0.000000   0.000009  -0.000057  -0.002471   0.000004
    30  H    0.000000  -0.000001  -0.000002  -0.001407  -0.001010  -0.000019
    31  H    0.000000   0.000000  -0.000011   0.000047   0.001069  -0.000001
              7          8          9         10         11         12
     1  C   -0.024111  -0.000001   0.000000   0.000000   0.000000   0.382436
     2  C    0.363086   0.000227   0.000084   0.000000   0.000000  -0.020263
     3  C    0.360632   0.268436  -0.017380  -0.000830   0.000522   0.000012
     4  C   -0.003536   0.000243  -0.019208   0.000551  -0.003170  -0.000017
     5  C   -0.022604  -0.016413   0.357834  -0.019882  -0.020756   0.000000
     6  C   -0.022359   0.000001  -0.001656   0.000004  -0.000011   0.001281
     7  C    4.764372  -0.018194  -0.001685   0.000000   0.000005  -0.002190
     8  O   -0.018194   7.845338  -0.000225  -0.001955  -0.000002   0.000000
     9  C   -0.001685  -0.000225   4.740785   0.363937   0.363666   0.000000
    10  C    0.000000  -0.001955   0.363937   4.747160  -0.028023   0.000000
    11  C    0.000005  -0.000002   0.363666  -0.028023   4.746160   0.000000
    12  H   -0.002190   0.000000   0.000000   0.000000   0.000000   0.628984
    13  H    0.001283   0.000000   0.000000   0.000000   0.000000  -0.021567
    14  H   -0.002221   0.000000  -0.000001   0.000000   0.000000  -0.021645
    15  H   -0.024573   0.000001  -0.000002   0.000000   0.000000  -0.002331
    16  H   -0.025716  -0.020925   0.000995  -0.000007  -0.000012   0.000001
    17  H   -0.000002  -0.000004  -0.001851   0.000006  -0.001492   0.000000
    18  H    0.000072   0.000007   0.001079  -0.000011   0.000040   0.000000
    19  H    0.001165  -0.000888  -0.024914  -0.002245  -0.001968   0.000000
    20  H   -0.001132  -0.000001  -0.000620   0.000000  -0.000010   0.000022
    21  H    0.001201   0.000000   0.000015   0.000000  -0.000001   0.000005
    22  H    0.380038  -0.000437  -0.000592  -0.000022  -0.000002  -0.000025
    23  H    0.381500  -0.000583   0.000012  -0.000002   0.000000   0.000231
    24  H    0.002627   0.258190  -0.000001  -0.000226  -0.000003   0.000000
    25  H   -0.000505   0.000051   0.381171  -0.024754  -0.024718   0.000000
    26  H    0.000000  -0.000186  -0.021115   0.381631  -0.001041   0.000000
    27  H   -0.000024   0.000062  -0.019468   0.383035   0.001395   0.000000
    28  H    0.000000   0.000036  -0.019525   0.381892  -0.004708   0.000000
    29  H    0.000000   0.000000  -0.020815  -0.001371   0.381670   0.000000
    30  H    0.000001   0.000000  -0.019523   0.001388   0.382640   0.000000
    31  H    0.000000   0.000000  -0.019262  -0.004083   0.382881   0.000000
             13         14         15         16         17         18
     1  C    0.382395   0.382230  -0.024086   0.000005  -0.000015   0.000005
     2  C   -0.020294  -0.020785   0.381521  -0.001915   0.001216  -0.001910
     3  C   -0.000016   0.000008  -0.001643   0.375526   0.001206  -0.002576
     4  C    0.000013   0.000009  -0.001431  -0.002448   0.383201   0.380829
     5  C    0.000000   0.000002   0.000061  -0.026195  -0.019838  -0.021766
     6  C   -0.002195  -0.002220  -0.024525   0.000095  -0.021278  -0.023164
     7  C    0.001283  -0.002221  -0.024573  -0.025716  -0.000002   0.000072
     8  O    0.000000   0.000000   0.000001  -0.020925  -0.000004   0.000007
     9  C    0.000000  -0.000001  -0.000002   0.000995  -0.001851   0.001079
    10  C    0.000000   0.000000   0.000000  -0.000007   0.000006  -0.000011
    11  C    0.000000   0.000000   0.000000  -0.000012  -0.001492   0.000040
    12  H   -0.021567  -0.021645  -0.002331   0.000001   0.000000   0.000000
    13  H    0.630093  -0.021684  -0.002313   0.000000  -0.000001   0.000001
    14  H   -0.021684   0.630007   0.001900  -0.000001   0.000000  -0.000001
    15  H   -0.002313   0.001900   0.652994   0.000290  -0.000003   0.000317
    16  H    0.000000  -0.000001   0.000290   0.669330   0.000019   0.000006
    17  H   -0.000001   0.000000  -0.000003   0.000019   0.637106  -0.024443
    18  H    0.000001  -0.000001   0.000317   0.000006  -0.024443   0.648702
    19  H    0.000000   0.000000  -0.000008  -0.002653  -0.001736  -0.002822
    20  H   -0.000020   0.000367   0.001901   0.000004  -0.002442   0.001951
    21  H    0.000217   0.000005  -0.003230  -0.000014  -0.001985  -0.002736
    22  H    0.000022   0.000357   0.001874   0.001928  -0.000007   0.000005
    23  H    0.000008   0.000001  -0.003120  -0.002670   0.000002  -0.000012
    24  H    0.000000   0.000000   0.000000  -0.003480  -0.000001   0.000004
    25  H    0.000000   0.000001  -0.000002  -0.000002   0.000047  -0.000010
    26  H    0.000000   0.000000   0.000000  -0.000008   0.000001  -0.000001
    27  H    0.000000   0.000000   0.000000   0.000009   0.000000   0.000000
    28  H    0.000000   0.000000   0.000000   0.000001  -0.000001   0.000000
    29  H    0.000000   0.000000   0.000000  -0.000001  -0.000008  -0.000010
    30  H    0.000000   0.000000   0.000000   0.000000  -0.001426   0.000017
    31  H    0.000000   0.000000   0.000000   0.000000   0.000017   0.000000
             19         20         21         22         23         24
     1  C    0.000001  -0.002909  -0.001610  -0.002790  -0.001708   0.000000
     2  C    0.000015  -0.022234  -0.021305  -0.021065  -0.020445  -0.000040
     3  C   -0.023972   0.000061   0.000028  -0.022113  -0.021343  -0.041611
     4  C   -0.022097  -0.022368  -0.021623   0.000102   0.000015  -0.000002
     5  C    0.378419  -0.001531   0.001194  -0.001838   0.001173  -0.002758
     6  C    0.001199   0.381305   0.382413  -0.001164   0.001182   0.000000
     7  C    0.001165  -0.001132   0.001201   0.380038   0.381500   0.002627
     8  O   -0.000888  -0.000001   0.000000  -0.000437  -0.000583   0.258190
     9  C   -0.024914  -0.000620   0.000015  -0.000592   0.000012  -0.000001
    10  C   -0.002245   0.000000   0.000000  -0.000022  -0.000002  -0.000226
    11  C   -0.001968  -0.000010  -0.000001  -0.000002   0.000000  -0.000003
    12  H    0.000000   0.000022   0.000005  -0.000025   0.000231   0.000000
    13  H    0.000000  -0.000020   0.000217   0.000022   0.000008   0.000000
    14  H    0.000000   0.000367   0.000005   0.000357   0.000001   0.000000
    15  H   -0.000008   0.001901  -0.003230   0.001874  -0.003120   0.000000
    16  H   -0.002653   0.000004  -0.000014   0.001928  -0.002670  -0.003480
    17  H   -0.001736  -0.002442  -0.001985  -0.000007   0.000002  -0.000001
    18  H   -0.002822   0.001951  -0.002736   0.000005  -0.000012   0.000004
    19  H    0.660230  -0.000003  -0.000029  -0.000001  -0.000032   0.000642
    20  H   -0.000003   0.642628  -0.023711   0.000229  -0.000008   0.000000
    21  H   -0.000029  -0.023711   0.640633  -0.000004  -0.000031   0.000000
    22  H   -0.000001   0.000229  -0.000004   0.634862  -0.024285  -0.000001
    23  H   -0.000032  -0.000008  -0.000031  -0.024285   0.631633   0.000025
    24  H    0.000642   0.000000   0.000000  -0.000001   0.000025   0.609882
    25  H    0.001765  -0.000663   0.000002  -0.000571  -0.000001   0.000005
    26  H    0.000453   0.000000   0.000000  -0.000002   0.000000  -0.000215
    27  H    0.000007   0.000001   0.000000   0.000023  -0.000002  -0.000465
    28  H    0.000009   0.000001   0.000000   0.000001   0.000000   0.000004
    29  H    0.000416  -0.000001   0.000000   0.000000   0.000000   0.000000
    30  H    0.000025   0.000036   0.000001   0.000001   0.000000   0.000000
    31  H   -0.000001  -0.000002   0.000000   0.000001   0.000000   0.000000
             25         26         27         28         29         30
     1  C    0.000004   0.000000   0.000000   0.000000   0.000000   0.000000
     2  C    0.000027   0.000000   0.000000   0.000000   0.000000  -0.000001
     3  C   -0.001371   0.000027  -0.000162   0.000000   0.000009  -0.000002
     4  C   -0.001281   0.000013  -0.000003  -0.000012  -0.000057  -0.001407
     5  C   -0.022151  -0.002739  -0.000617   0.001049  -0.002471  -0.001010
     6  C   -0.000543   0.000000   0.000001   0.000000   0.000004  -0.000019
     7  C   -0.000505   0.000000  -0.000024   0.000000   0.000000   0.000001
     8  O    0.000051  -0.000186   0.000062   0.000036   0.000000   0.000000
     9  C    0.381171  -0.021115  -0.019468  -0.019525  -0.020815  -0.019523
    10  C   -0.024754   0.381631   0.383035   0.381892  -0.001371   0.001388
    11  C   -0.024718  -0.001041   0.001395  -0.004708   0.381670   0.382640
    12  H    0.000000   0.000000   0.000000   0.000000   0.000000   0.000000
    13  H    0.000000   0.000000   0.000000   0.000000   0.000000   0.000000
    14  H    0.000001   0.000000   0.000000   0.000000   0.000000   0.000000
    15  H   -0.000002   0.000000   0.000000   0.000000   0.000000   0.000000
    16  H   -0.000002  -0.000008   0.000009   0.000001  -0.000001   0.000000
    17  H    0.000047   0.000001   0.000000  -0.000001  -0.000008  -0.001426
    18  H   -0.000010  -0.000001   0.000000   0.000000  -0.000010   0.000017
    19  H    0.001765   0.000453   0.000007   0.000009   0.000416   0.000025
    20  H   -0.000663   0.000000   0.000001   0.000001  -0.000001   0.000036
    21  H    0.000002   0.000000   0.000000   0.000000   0.000000   0.000001
    22  H   -0.000571  -0.000002   0.000023   0.000001   0.000000   0.000001
    23  H   -0.000001   0.000000  -0.000002   0.000000   0.000000   0.000000
    24  H    0.000005  -0.000215  -0.000465   0.000004   0.000000   0.000000
    25  H    0.650832   0.001901  -0.003611  -0.001084   0.001903  -0.003075
    26  H    0.001901   0.637218  -0.020843  -0.021881   0.000240  -0.000011
    27  H   -0.003611  -0.020843   0.613951  -0.022826  -0.000005  -0.000040
    28  H   -0.001084  -0.021881  -0.022826   0.635582   0.000018   0.000083
    29  H    0.001903   0.000240  -0.000005   0.000018   0.632261  -0.021521
    30  H   -0.003075  -0.000011  -0.000040   0.000083  -0.021521   0.633896
    31  H   -0.001503   0.000029   0.000070  -0.000232  -0.021567  -0.022921
             31
     1  C    0.000000
     2  C    0.000000
     3  C   -0.000011
     4  C    0.000047
     5  C    0.001069
     6  C   -0.000001
     7  C    0.000000
     8  O    0.000000
     9  C   -0.019262
    10  C   -0.004083
    11  C    0.382881
    12  H    0.000000
    13  H    0.000000
    14  H    0.000000
    15  H    0.000000
    16  H    0.000000
    17  H    0.000017
    18  H    0.000000
    19  H   -0.000001
    20  H   -0.000002
    21  H    0.000000
    22  H    0.000001
    23  H    0.000000
    24  H    0.000000
    25  H   -0.001503
    26  H    0.000029
    27  H    0.000070
    28  H   -0.000232
    29  H   -0.021567
    30  H   -0.022921
    31  H    0.630953
 Mulliken atomic charges:
              1
     1  C   -0.171714
     2  C   -0.022916
     3  C    0.078800
     4  C   -0.102530
     5  C   -0.040970
     6  C   -0.101502
     7  C   -0.107131
     8  O   -0.312779
     9  C   -0.021734
    10  C   -0.176193
    11  C   -0.173062
    12  H    0.055064
    13  H    0.054057
    14  H    0.053671
    15  H    0.046409
    16  H    0.037838
    17  H    0.053711
    18  H    0.046427
    19  H    0.039025
    20  H    0.049150
    21  H    0.050563
    22  H    0.055476
    23  H    0.058458
    24  H    0.177423
    25  H    0.048136
    26  H    0.046529
    27  H    0.069511
    28  H    0.051592
    29  H    0.051306
    30  H    0.052871
    31  H    0.054514
 Sum of Mulliken atomic charges =   0.00000
 Mulliken charges with hydrogens summed into heavy atoms:
              1
     1  C   -0.008922
     2  C    0.023493
     3  C    0.116638
     4  C   -0.002392
     5  C   -0.001945
     6  C   -0.001789
     7  C    0.006802
     8  O   -0.135356
     9  C    0.026403
    10  C   -0.008561
    11  C   -0.014371
 Sum of Mulliken charges with hydrogens summed into heavy atoms =   0.00000
 Electronic spatial extent (au):  <R**2>=           2018.4216
 Charge=              0.0000 electrons
 Dipole moment (field-independent basis, Debye):
    X=             -0.0568    Y=             -0.9128    Z=              1.0022  Tot=              1.3568
 Quadrupole moment (field-independent basis, Debye-Ang):
   XX=            -66.6584   YY=            -71.4968   ZZ=            -65.8316
   XY=             -0.3885   XZ=             -1.1183   YZ=              2.3727
 Traceless Quadrupole moment (field-independent basis, Debye-Ang):
   XX=              1.3372   YY=             -3.5012   ZZ=              2.1640
   XY=             -0.3885   XZ=             -1.1183   YZ=              2.3727
 Octapole moment (field-independent basis, Debye-Ang**2):
  XXX=             -6.3261  YYY=              2.9591  ZZZ=              2.7344  XYY=             -0.3482
  XXY=              8.3753  XXZ=              5.1480  XZZ=             -4.4273  YZZ=              7.5555
  YYZ=              5.3707  XYZ=             -4.5175
 Hexadecapole moment (field-independent basis, Debye-Ang**3):
 XXXX=          -1522.6709 YYYY=           -727.4384 ZZZZ=           -341.3900 XXXY=            -14.8388
 XXXZ=              0.2768 YYYX=            -15.1127 YYYZ=             13.4023 ZZZX=              0.2993
 ZZZY=             10.9717 XXYY=           -359.0567 XXZZ=           -305.8290 YYZZ=           -166.7754
 XXYZ=              7.6779 YYXZ=             -8.8522 ZZXY=             -5.8542
 N-N= 6.988012223491D+02 E-N=-2.469577508734D+03  KE= 4.555168127925D+02
 ******************************Gaussian NBO Version 3.1******************************
             N A T U R A L   A T O M I C   O R B I T A L   A N D
          N A T U R A L   B O N D   O R B I T A L   A N A L Y S I S
 ******************************Gaussian NBO Version 3.1******************************
       /RESON  / : Allow strongly delocalized NBO set
       /NLMO   / : Form Natural Localized Molecular Orbitals
       /NMR /    : Analyze NMR Sheilding Tensor 

 Analyzing the SCF density

 Job title: comment                                                         

 Storage needed:     19864 in NPA,     23691 in NBO,     45933 in NLMO (  33549317 available)


 NATURAL POPULATIONS:  Natural atomic orbital occupancies 
                                                          
   NAO  Atom  No  lang   Type(AO)    Occupancy      Energy
 ----------------------------------------------------------
     1    C    1  S      Cor( 1S)     1.99997     -10.96519
     2    C    1  S      Val( 2S)     1.07950      -0.18141
     3    C    1  px     Val( 2p)     1.00988       0.08524
     4    C    1  py     Val( 2p)     1.02887       0.08380
     5    C    1  pz     Val( 2p)     1.00904       0.08731

     6    C    2  S      Cor( 1S)     1.99997     -10.99048
     7    C    2  S      Val( 2S)     1.07984      -0.19321
     8    C    2  px     Val( 2p)     0.96265       0.10553
     9    C    2  py     Val( 2p)     0.95740       0.10978
    10    C    2  pz     Val( 2p)     0.98378       0.10284

    11    C    3  S      Cor( 1S)     1.99989     -11.03418
    12    C    3  S      Val( 2S)     1.08718      -0.21567
    13    C    3  px     Val( 2p)     0.92390       0.09492
    14    C    3  py     Val( 2p)     0.86578       0.12084
    15    C    3  pz     Val( 2p)     0.97785       0.08799

    16    C    4  S      Cor( 1S)     1.99995     -10.97648
    17    C    4  S      Val( 2S)     1.08563      -0.19246
    18    C    4  px     Val( 2p)     0.98415       0.09434
    19    C    4  py     Val( 2p)     1.00035       0.09348
    20    C    4  pz     Val( 2p)     0.99433       0.09343

    21    C    5  S      Cor( 1S)     1.99995     -10.99033
    22    C    5  S      Val( 2S)     1.10621      -0.21706
    23    C    5  px     Val( 2p)     0.96803       0.10545
    24    C    5  py     Val( 2p)     0.96857       0.09551
    25    C    5  pz     Val( 2p)     0.97488       0.09866

    26    C    6  S      Cor( 1S)     1.99996     -10.97529
    27    C    6  S      Val( 2S)     1.08374      -0.18927
    28    C    6  px     Val( 2p)     0.98864       0.09519
    29    C    6  py     Val( 2p)     0.98773       0.09509
    30    C    6  pz     Val( 2p)     1.00406       0.09431

    31    C    7  S      Cor( 1S)     1.99996     -10.97436
    32    C    7  S      Val( 2S)     1.08978      -0.19350
    33    C    7  px     Val( 2p)     0.98906       0.09231
    34    C    7  py     Val( 2p)     1.00316       0.09204
    35    C    7  pz     Val( 2p)     1.00170       0.09409

    36    O    8  S      Cor( 1S)     1.99999     -20.14085
    37    O    8  S      Val( 2S)     1.74727      -0.99742
    38    O    8  px     Val( 2p)     1.43062      -0.14542
    39    O    8  py     Val( 2p)     1.53354      -0.19109
    40    O    8  pz     Val( 2p)     1.62228      -0.23629

    41    C    9  S      Cor( 1S)     1.99995     -10.99067
    42    C    9  S      Val( 2S)     1.08635      -0.19689
    43    C    9  px     Val( 2p)     0.96668       0.10945
    44    C    9  py     Val( 2p)     0.95298       0.11062
    45    C    9  pz     Val( 2p)     0.97349       0.10896

    46    C   10  S      Cor( 1S)     1.99997     -10.95751
    47    C   10  S      Val( 2S)     1.08171      -0.17639
    48    C   10  px     Val( 2p)     1.00872       0.09338
    49    C   10  py     Val( 2p)     1.02081       0.08823
    50    C   10  pz     Val( 2p)     1.02159       0.09298

    51    C   11  S      Cor( 1S)     1.99997     -10.96339
    52    C   11  S      Val( 2S)     1.08206      -0.18231
    53    C   11  px     Val( 2p)     1.01825       0.08581
    54    C   11  py     Val( 2p)     0.99996       0.08913
    55    C   11  pz     Val( 2p)     1.02828       0.08483

    56    H   12  S      Val( 1S)     0.96229       0.07561

    57    H   13  S      Val( 1S)     0.96319       0.07450

    58    H   14  S      Val( 1S)     0.96364       0.07454

    59    H   15  S      Val( 1S)     0.97793       0.06371

    60    H   16  S      Val( 1S)     0.99763       0.04723

    61    H   17  S      Val( 1S)     0.96810       0.07387

    62    H   18  S      Val( 1S)     0.97442       0.06559

    63    H   19  S      Val( 1S)     0.98620       0.05478

    64    H   20  S      Val( 1S)     0.97193       0.07092

    65    H   21  S      Val( 1S)     0.97008       0.06940

    66    H   22  S      Val( 1S)     0.96562       0.07678

    67    H   23  S      Val( 1S)     0.96254       0.07740

    68    H   24  S      Val( 1S)     0.80989       0.07593

    69    H   25  S      Val( 1S)     0.97788       0.06997

    70    H   26  S      Val( 1S)     0.96997       0.07429

    71    H   27  S      Val( 1S)     0.94973       0.09681

    72    H   28  S      Val( 1S)     0.96536       0.07903

    73    H   29  S      Val( 1S)     0.96607       0.07310

    74    H   30  S      Val( 1S)     0.96485       0.07750

    75    H   31  S      Val( 1S)     0.96285       0.07612


 Summary of Natural Population Analysis:                  
                                                          
                                       Natural Population 
                Natural  -----------------------------------------------
    Atom  No    Charge         Core      Valence    Rydberg      Total
 -----------------------------------------------------------------------
      C    1   -0.12727      1.99997     4.12729    0.00000     6.12727
      C    2    0.01636      1.99997     3.98367    0.00000     5.98364
      C    3    0.14540      1.99989     3.85471    0.00000     5.85460
      C    4   -0.06442      1.99995     4.06447    0.00000     6.06442
      C    5   -0.01764      1.99995     4.01769    0.00000     6.01764
      C    6   -0.06412      1.99996     4.06416    0.00000     6.06412
      C    7   -0.08366      1.99996     4.08370    0.00000     6.08366
      O    8   -0.33371      1.99999     6.33371    0.00000     8.33371
      C    9    0.02054      1.99995     3.97951    0.00000     5.97946
      C   10   -0.13280      1.99997     4.13283    0.00000     6.13280
      C   11   -0.12851      1.99997     4.12854    0.00000     6.12851
      H   12    0.03771      0.00000     0.96229    0.00000     0.96229
      H   13    0.03681      0.00000     0.96319    0.00000     0.96319
      H   14    0.03636      0.00000     0.96364    0.00000     0.96364
      H   15    0.02207      0.00000     0.97793    0.00000     0.97793
      H   16    0.00237      0.00000     0.99763    0.00000     0.99763
      H   17    0.03190      0.00000     0.96810    0.00000     0.96810
      H   18    0.02558      0.00000     0.97442    0.00000     0.97442
      H   19    0.01380      0.00000     0.98620    0.00000     0.98620
      H   20    0.02807      0.00000     0.97193    0.00000     0.97193
      H   21    0.02992      0.00000     0.97008    0.00000     0.97008
      H   22    0.03438      0.00000     0.96562    0.00000     0.96562
      H   23    0.03746      0.00000     0.96254    0.00000     0.96254
      H   24    0.19011      0.00000     0.80989    0.00000     0.80989
      H   25    0.02212      0.00000     0.97788    0.00000     0.97788
      H   26    0.03003      0.00000     0.96997    0.00000     0.96997
      H   27    0.05027      0.00000     0.94973    0.00000     0.94973
      H   28    0.03464      0.00000     0.96536    0.00000     0.96536
      H   29    0.03393      0.00000     0.96607    0.00000     0.96607
      H   30    0.03515      0.00000     0.96485    0.00000     0.96485
      H   31    0.03715      0.00000     0.96285    0.00000     0.96285
 =======================================================================
   * Total *    0.00000     21.99954    66.00046    0.00000    88.00000

                                 Natural Population      
 --------------------------------------------------------
   Core                      21.99954 ( 99.9979% of  22)
   Valence                   66.00046 (100.0007% of  66)
   Natural Minimal Basis     88.00000 (100.0000% of  88)
   Natural Rydberg Basis      0.00000 (  0.0000% of  88)
 --------------------------------------------------------

    Atom  No          Natural Electron Configuration
 ----------------------------------------------------------------------------
      C    1      [core]2S( 1.08)2p( 3.05)
      C    2      [core]2S( 1.08)2p( 2.90)
      C    3      [core]2S( 1.09)2p( 2.77)
      C    4      [core]2S( 1.09)2p( 2.98)
      C    5      [core]2S( 1.11)2p( 2.91)
      C    6      [core]2S( 1.08)2p( 2.98)
      C    7      [core]2S( 1.09)2p( 2.99)
      O    8      [core]2S( 1.75)2p( 4.59)
      C    9      [core]2S( 1.09)2p( 2.89)
      C   10      [core]2S( 1.08)2p( 3.05)
      C   11      [core]2S( 1.08)2p( 3.05)
      H   12            1S( 0.96)
      H   13            1S( 0.96)
      H   14            1S( 0.96)
      H   15            1S( 0.98)
      H   16            1S( 1.00)
      H   17            1S( 0.97)
      H   18            1S( 0.97)
      H   19            1S( 0.99)
      H   20            1S( 0.97)
      H   21            1S( 0.97)
      H   22            1S( 0.97)
      H   23            1S( 0.96)
      H   24            1S( 0.81)
      H   25            1S( 0.98)
      H   26            1S( 0.97)
      H   27            1S( 0.95)
      H   28            1S( 0.97)
      H   29            1S( 0.97)
      H   30            1S( 0.96)
      H   31            1S( 0.96)


 NATURAL BOND ORBITAL ANALYSIS:

                       Occupancies       Lewis Structure    Low   High
           Occ.    -------------------  -----------------   occ   occ
  Cycle   Thresh.   Lewis   Non-Lewis     CR  BD  3C  LP    (L)   (NL)   Dev
 =============================================================================
   1(1)    1.90    87.63394   0.36606     11  31   0   2     0      0    0.02
 -----------------------------------------------------------------------------

 Structure accepted: No low occupancy Lewis orbitals

 --------------------------------------------------------
   Core                     21.99953 ( 99.998% of  22)
   Valence Lewis            65.63441 ( 99.446% of  66)
  ==================       ============================
   Total Lewis              87.63394 ( 99.584% of  88)
  -----------------------------------------------------
   Valence non-Lewis         0.36606 (  0.416% of  88)
   Rydberg non-Lewis         0.00000 (  0.000% of  88)
  ==================       ============================
   Total non-Lewis           0.36606 (  0.416% of  88)
 --------------------------------------------------------


       (Occupancy)   Bond orbital/ Coefficients/ Hybrids
 ---------------------------------------------------------------------------------
     1. (1.98907) BD ( 1) C   1 - C   2  
                ( 50.79%)   0.7127* C   1 s( 25.73%)p 2.89( 74.27%)
                                            0.0001  0.5072 -0.6111  0.1072  0.5982
                ( 49.21%)   0.7015* C   2 s( 25.26%)p 2.96( 74.74%)
                                            0.0000  0.5026  0.5947 -0.1126 -0.6173
     2. (1.99500) BD ( 1) C   1 - H  12  
                ( 51.90%)   0.7204* C   1 s( 24.73%)p 3.04( 75.27%)
                                            0.0000  0.4973  0.4486  0.7364 -0.0955
                ( 48.10%)   0.6936* H  12 s(100.00%)
                                            1.0000
     3. (1.99496) BD ( 1) C   1 - H  13  
                ( 51.85%)   0.7201* C   1 s( 24.73%)p 3.04( 75.27%)
                                            0.0000  0.4973  0.5404 -0.6334  0.2439
                ( 48.15%)   0.6939* H  13 s(100.00%)
                                            1.0000
     4. (1.99536) BD ( 1) C   1 - H  14  
                ( 51.86%)   0.7201* C   1 s( 24.81%)p 3.03( 75.19%)
                                            0.0000  0.4981 -0.3651 -0.2121 -0.7573
                ( 48.14%)   0.6938* H  14 s(100.00%)
                                            1.0000
     5. (1.98534) BD ( 1) C   2 - C   6  
                ( 49.65%)   0.7046* C   2 s( 25.14%)p 2.98( 74.86%)
                                            0.0000  0.5014 -0.4460 -0.7328  0.1123
                ( 50.35%)   0.7096* C   6 s( 25.33%)p 2.95( 74.67%)
                                            0.0001  0.5032  0.4189  0.7449 -0.1282
     6. (1.98311) BD ( 1) C   2 - C   7  
                ( 49.40%)   0.7029* C   2 s( 25.13%)p 2.98( 74.87%)
                                            0.0000  0.5013 -0.5398  0.6366 -0.2279
                ( 50.60%)   0.7113* C   7 s( 25.61%)p 2.91( 74.39%)
                                            0.0001  0.5060  0.5145 -0.6572  0.2177
     7. (1.98501) BD ( 1) C   2 - H  15  
                ( 51.03%)   0.7144* C   2 s( 24.46%)p 3.09( 75.54%)
                                            0.0000  0.4946  0.3950  0.2121  0.7446
                ( 48.97%)   0.6998* H  15 s(100.00%)
                                            1.0000
     8. (1.98194) BD ( 1) C   3 - C   5  
                ( 49.91%)   0.7065* C   3 s( 25.78%)p 2.88( 74.22%)
                                            0.0001  0.5077 -0.4772 -0.7168  0.0260
                ( 50.09%)   0.7078* C   5 s( 24.96%)p 3.01( 75.04%)
                                            0.0000  0.4996  0.4503  0.7314 -0.1128
     9. (1.98671) BD ( 1) C   3 - C   7  
                ( 50.05%)   0.7075* C   3 s( 26.46%)p 2.78( 73.54%)
                                            0.0000  0.5144  0.6220 -0.0710 -0.5861
                ( 49.95%)   0.7067* C   7 s( 25.01%)p 3.00( 74.99%)
                                            0.0001  0.5001 -0.6512  0.0632  0.5673
    10. (1.98893) BD ( 1) C   3 - O   8  
                ( 41.02%)   0.6405* C   3 s( 22.75%)p 3.40( 77.25%)
                                            0.0000  0.4769 -0.5194  0.6758 -0.2145
                ( 58.98%)   0.7680* O   8 s( 16.70%)p 4.99( 83.30%)
                                            0.0000  0.4086  0.4653 -0.7421  0.2566
    11. (1.98815) BD ( 1) C   3 - H  16  
                ( 50.41%)   0.7100* C   3 s( 25.02%)p 3.00( 74.98%)
                                            0.0000  0.5002  0.3400  0.1562  0.7809
                ( 49.59%)   0.7042* H  16 s(100.00%)
                                            1.0000
    12. (1.98272) BD ( 1) C   4 - C   5  
                ( 50.35%)   0.7096* C   4 s( 25.32%)p 2.95( 74.68%)
                                            0.0001  0.5031 -0.5473  0.6048 -0.2856
                ( 49.65%)   0.7046* C   5 s( 24.85%)p 3.02( 75.15%)
                                            0.0000  0.4985  0.5399 -0.6370  0.2328
    13. (1.99005) BD ( 1) C   4 - C   6  
                ( 50.05%)   0.7075* C   4 s( 25.33%)p 2.95( 74.67%)
                                            0.0000  0.5033  0.6489 -0.0971 -0.5623
                ( 49.95%)   0.7067* C   6 s( 25.19%)p 2.97( 74.81%)
                                            0.0000  0.5018 -0.6613  0.1263  0.5430
    14. (1.98971) BD ( 1) C   4 - H  17  
                ( 51.61%)   0.7184* C   4 s( 25.15%)p 2.98( 74.85%)
                                            0.0000  0.5015 -0.4187 -0.7510  0.0954
                ( 48.39%)   0.6956* H  17 s(100.00%)
                                            1.0000
    15. (1.98974) BD ( 1) C   4 - H  18  
                ( 51.26%)   0.7160* C   4 s( 24.20%)p 3.13( 75.80%)
                                            0.0000  0.4919  0.3227  0.2465  0.7701
                ( 48.74%)   0.6981* H  18 s(100.00%)
                                            1.0000
    16. (1.97968) BD ( 1) C   5 - C   9  
                ( 50.21%)   0.7086* C   5 s( 25.65%)p 2.90( 74.35%)
                                            0.0001  0.5064 -0.4014 -0.2118 -0.7332
                ( 49.79%)   0.7056* C   9 s( 25.45%)p 2.93( 74.55%)
                                            0.0001  0.5044  0.4287  0.2346  0.7118
    17. (1.98398) BD ( 1) C   5 - H  19  
                ( 50.60%)   0.7113* C   5 s( 24.54%)p 3.07( 75.46%)
                                            0.0000  0.4954 -0.5871  0.1200  0.6289
                ( 49.40%)   0.7029* H  19 s(100.00%)
                                            1.0000
    18. (1.99034) BD ( 1) C   6 - H  20  
                ( 51.44%)   0.7172* C   6 s( 24.75%)p 3.04( 75.25%)
                                            0.0000  0.4975 -0.3011 -0.2971 -0.7573
                ( 48.56%)   0.6968* H  20 s(100.00%)
                                            1.0000
    19. (1.98950) BD ( 1) C   6 - H  21  
                ( 51.45%)   0.7173* C   6 s( 24.74%)p 3.04( 75.26%)
                                            0.0000  0.4974  0.5446 -0.5839  0.3393
                ( 48.55%)   0.6968* H  21 s(100.00%)
                                            1.0000
    20. (1.98960) BD ( 1) C   7 - H  22  
                ( 51.74%)   0.7193* C   7 s( 24.68%)p 3.05( 75.32%)
                                            0.0000  0.4968 -0.3233 -0.1336 -0.7942
                ( 48.26%)   0.6947* H  22 s(100.00%)
                                            1.0000
    21. (1.98892) BD ( 1) C   7 - H  23  
                ( 51.83%)   0.7199* C   7 s( 24.70%)p 3.05( 75.30%)
                                            0.0000  0.4970  0.4547  0.7391  0.0014
                ( 48.17%)   0.6941* H  23 s(100.00%)
                                            1.0000
    22. (1.98911) BD ( 1) O   8 - H  24  
                ( 59.51%)   0.7714* O   8 s( 16.68%)p 5.00( 83.32%)
                                            0.0000 -0.4084  0.6465 -0.0419 -0.6431
                ( 40.49%)   0.6363* H  24 s(100.00%)
                                           -1.0000
    23. (1.98917) BD ( 1) C   9 - C  10  
                ( 49.25%)   0.7018* C   9 s( 25.13%)p 2.98( 74.87%)
                                            0.0000  0.5013 -0.5740  0.6120 -0.2112
                ( 50.75%)   0.7124* C  10 s( 25.82%)p 2.87( 74.18%)
                                            0.0001  0.5081  0.5785 -0.5858  0.2529
    24. (1.98883) BD ( 1) C   9 - C  11  
                ( 48.93%)   0.6995* C   9 s( 24.76%)p 3.04( 75.24%)
                                            0.0000  0.4975 -0.4156 -0.7477  0.1441
                ( 51.07%)   0.7146* C  11 s( 25.81%)p 2.87( 74.19%)
                                            0.0001  0.5080  0.4232  0.7436 -0.0995
    25. (1.98482) BD ( 1) C   9 - H  25  
                ( 51.05%)   0.7145* C   9 s( 24.66%)p 3.05( 75.34%)
                                            0.0000  0.4966  0.5603 -0.1070 -0.6542
                ( 48.95%)   0.6997* H  25 s(100.00%)
                                            1.0000
    26. (1.99545) BD ( 1) C  10 - H  26  
                ( 51.54%)   0.7179* C  10 s( 24.89%)p 3.02( 75.11%)
                                            0.0000  0.4989 -0.4840  0.2463  0.6754
                ( 48.46%)   0.6961* H  26 s(100.00%)
                                            1.0000
    27. (1.99554) BD ( 1) C  10 - H  27  
                ( 52.58%)   0.7251* C  10 s( 24.79%)p 3.03( 75.21%)
                                            0.0000  0.4978  0.4070  0.6918 -0.3285
                ( 47.42%)   0.6886* H  27 s(100.00%)
                                            1.0000
    28. (1.99427) BD ( 1) C  10 - H  28  
                ( 51.74%)   0.7193* C  10 s( 24.51%)p 3.08( 75.49%)
                                            0.0000  0.4950 -0.5152 -0.3427 -0.6099
                ( 48.26%)   0.6947* H  28 s(100.00%)
                                            1.0000
    29. (1.99571) BD ( 1) C  11 - H  29  
                ( 51.74%)   0.7193* C  11 s( 24.86%)p 3.02( 75.14%)
                                            0.0000  0.4986 -0.4997  0.0383  0.7073
                ( 48.26%)   0.6947* H  29 s(100.00%)
                                            1.0000
    30. (1.99468) BD ( 1) C  11 - H  30  
                ( 51.78%)   0.7196* C  11 s( 24.64%)p 3.06( 75.36%)
                                            0.0000  0.4964  0.5680 -0.6508  0.0866
                ( 48.22%)   0.6944* H  30 s(100.00%)
                                            1.0000
    31. (1.99420) BD ( 1) C  11 - H  31  
                ( 51.85%)   0.7201* C  11 s( 24.69%)p 3.05( 75.31%)
                                            0.0000  0.4969 -0.4986 -0.1486 -0.6946
                ( 48.15%)   0.6939* H  31 s(100.00%)
                                            1.0000
    32. (1.99997) CR ( 1) C   1           s(100.00%)
                                            1.0000  0.0000  0.0001  0.0000 -0.0001
    33. (1.99997) CR ( 1) C   2           s(100.00%)
                                            1.0000  0.0000  0.0001  0.0000  0.0000
    34. (1.99989) CR ( 1) C   3           s(100.00%)
                                            1.0000  0.0000  0.0000  0.0001  0.0000
    35. (1.99995) CR ( 1) C   4           s(100.00%)
                                            1.0000 -0.0001  0.0000  0.0000  0.0001
    36. (1.99995) CR ( 1) C   5           s(100.00%)
                                            1.0000  0.0000  0.0000  0.0000  0.0000
    37. (1.99996) CR ( 1) C   6           s(100.00%)
                                            1.0000  0.0000  0.0000 -0.0001  0.0000
    38. (1.99996) CR ( 1) C   7           s(100.00%)
                                            1.0000 -0.0001  0.0000  0.0001  0.0000
    39. (1.99999) CR ( 1) O   8           s(100.00%)
                                            1.0000  0.0000  0.0000  0.0000  0.0000
    40. (1.99995) CR ( 1) C   9           s(100.00%)
                                            1.0000  0.0000 -0.0001  0.0000  0.0000
    41. (1.99997) CR ( 1) C  10           s(100.00%)
                                            1.0000  0.0000 -0.0001  0.0000  0.0000
    42. (1.99997) CR ( 1) C  11           s(100.00%)
                                            1.0000  0.0000 -0.0001 -0.0001  0.0000
    43. (1.99226) LP ( 1) O   8           s( 66.47%)p 0.50( 33.53%)
                                            0.0000  0.8153  0.0620  0.3230 -0.4765
    44. (1.97256) LP ( 2) O   8           s(  0.15%)p99.99( 99.85%)
                                            0.0000  0.0388  0.6015  0.5858  0.5418
    45. (0.00979) BD*( 1) C   1 - C   2  
                ( 49.21%)   0.7015* C   1 s( 25.73%)p 2.89( 74.27%)
                                           -0.0001 -0.5072  0.6111 -0.1072 -0.5982
                ( 50.79%)  -0.7127* C   2 s( 25.26%)p 2.96( 74.74%)
                                            0.0000 -0.5026 -0.5947  0.1126  0.6173
    46. (0.00510) BD*( 1) C   1 - H  12  
                ( 48.10%)   0.6936* C   1 s( 24.73%)p 3.04( 75.27%)
                                            0.0000 -0.4973 -0.4486 -0.7364  0.0955
                ( 51.90%)  -0.7204* H  12 s(100.00%)
                                           -1.0000
    47. (0.00508) BD*( 1) C   1 - H  13  
                ( 48.15%)   0.6939* C   1 s( 24.73%)p 3.04( 75.27%)
                                            0.0000 -0.4973 -0.5404  0.6334 -0.2439
                ( 51.85%)  -0.7201* H  13 s(100.00%)
                                           -1.0000
    48. (0.00589) BD*( 1) C   1 - H  14  
                ( 48.14%)   0.6938* C   1 s( 24.81%)p 3.03( 75.19%)
                                            0.0000 -0.4981  0.3651  0.2121  0.7573
                ( 51.86%)  -0.7201* H  14 s(100.00%)
                                           -1.0000
    49. (0.01628) BD*( 1) C   2 - C   6  
                ( 50.35%)   0.7096* C   2 s( 25.14%)p 2.98( 74.86%)
                                            0.0000  0.5014 -0.4460 -0.7328  0.1123
                ( 49.65%)  -0.7046* C   6 s( 25.33%)p 2.95( 74.67%)
                                            0.0001  0.5032  0.4189  0.7449 -0.1282
    50. (0.01478) BD*( 1) C   2 - C   7  
                ( 50.60%)   0.7113* C   2 s( 25.13%)p 2.98( 74.87%)
                                            0.0000  0.5013 -0.5398  0.6366 -0.2279
                ( 49.40%)  -0.7029* C   7 s( 25.61%)p 2.91( 74.39%)
                                            0.0001  0.5060  0.5145 -0.6572  0.2177
    51. (0.01168) BD*( 1) C   2 - H  15  
                ( 48.97%)   0.6998* C   2 s( 24.46%)p 3.09( 75.54%)
                                            0.0000 -0.4946 -0.3950 -0.2121 -0.7446
                ( 51.03%)  -0.7144* H  15 s(100.00%)
                                           -1.0000
    52. (0.03475) BD*( 1) C   3 - C   5  
                ( 50.09%)   0.7078* C   3 s( 25.78%)p 2.88( 74.22%)
                                            0.0001  0.5077 -0.4772 -0.7168  0.0260
                ( 49.91%)  -0.7065* C   5 s( 24.96%)p 3.01( 75.04%)
                                            0.0000  0.4996  0.4503  0.7314 -0.1128
    53. (0.02197) BD*( 1) C   3 - C   7  
                ( 49.95%)   0.7067* C   3 s( 26.46%)p 2.78( 73.54%)
                                            0.0000 -0.5144 -0.6220  0.0710  0.5861
                ( 50.05%)  -0.7075* C   7 s( 25.01%)p 3.00( 74.99%)
                                           -0.0001 -0.5001  0.6512 -0.0632 -0.5673
    54. (0.02243) BD*( 1) C   3 - O   8  
                ( 58.98%)   0.7680* C   3 s( 22.75%)p 3.40( 77.25%)
                                            0.0000  0.4769 -0.5194  0.6758 -0.2145
                ( 41.02%)  -0.6405* O   8 s( 16.70%)p 4.99( 83.30%)
                                            0.0000  0.4086  0.4653 -0.7421  0.2566
    55. (0.02320) BD*( 1) C   3 - H  16  
                ( 49.59%)   0.7042* C   3 s( 25.02%)p 3.00( 74.98%)
                                            0.0000 -0.5002 -0.3400 -0.1562 -0.7809
                ( 50.41%)  -0.7100* H  16 s(100.00%)
                                           -1.0000
    56. (0.01568) BD*( 1) C   4 - C   5  
                ( 49.65%)   0.7046* C   4 s( 25.32%)p 2.95( 74.68%)
                                           -0.0001 -0.5031  0.5473 -0.6048  0.2856
                ( 50.35%)  -0.7096* C   5 s( 24.85%)p 3.02( 75.15%)
                                            0.0000 -0.4985 -0.5399  0.6370 -0.2328
    57. (0.01190) BD*( 1) C   4 - C   6  
                ( 49.95%)   0.7067* C   4 s( 25.33%)p 2.95( 74.67%)
                                            0.0000 -0.5033 -0.6489  0.0971  0.5623
                ( 50.05%)  -0.7075* C   6 s( 25.19%)p 2.97( 74.81%)
                                            0.0000 -0.5018  0.6613 -0.1263 -0.5430
    58. (0.01027) BD*( 1) C   4 - H  17  
                ( 48.39%)   0.6956* C   4 s( 25.15%)p 2.98( 74.85%)
                                            0.0000 -0.5015  0.4187  0.7510 -0.0954
                ( 51.61%)  -0.7184* H  17 s(100.00%)
                                           -1.0000
    59. (0.00917) BD*( 1) C   4 - H  18  
                ( 48.74%)   0.6981* C   4 s( 24.20%)p 3.13( 75.80%)
                                            0.0000 -0.4919 -0.3227 -0.2465 -0.7701
                ( 51.26%)  -0.7160* H  18 s(100.00%)
                                           -1.0000
    60. (0.02293) BD*( 1) C   5 - C   9  
                ( 49.79%)   0.7056* C   5 s( 25.65%)p 2.90( 74.35%)
                                           -0.0001 -0.5064  0.4014  0.2118  0.7332
                ( 50.21%)  -0.7086* C   9 s( 25.45%)p 2.93( 74.55%)
                                           -0.0001 -0.5044 -0.4287 -0.2346 -0.7118
    61. (0.01198) BD*( 1) C   5 - H  19  
                ( 49.40%)   0.7029* C   5 s( 24.54%)p 3.07( 75.46%)
                                            0.0000 -0.4954  0.5871 -0.1200 -0.6289
                ( 50.60%)  -0.7113* H  19 s(100.00%)
                                           -1.0000
    62. (0.01057) BD*( 1) C   6 - H  20  
                ( 48.56%)   0.6968* C   6 s( 24.75%)p 3.04( 75.25%)
                                            0.0000 -0.4975  0.3011  0.2971  0.7573
                ( 51.44%)  -0.7172* H  20 s(100.00%)
                                           -1.0000
    63. (0.00812) BD*( 1) C   6 - H  21  
                ( 48.55%)   0.6968* C   6 s( 24.74%)p 3.04( 75.26%)
                                            0.0000 -0.4974 -0.5446  0.5839 -0.3393
                ( 51.45%)  -0.7173* H  21 s(100.00%)
                                           -1.0000
    64. (0.01069) BD*( 1) C   7 - H  22  
                ( 48.26%)   0.6947* C   7 s( 24.68%)p 3.05( 75.32%)
                                            0.0000 -0.4968  0.3233  0.1336  0.7942
                ( 51.74%)  -0.7193* H  22 s(100.00%)
                                           -1.0000
    65. (0.00858) BD*( 1) C   7 - H  23  
                ( 48.17%)   0.6941* C   7 s( 24.70%)p 3.05( 75.30%)
                                            0.0000 -0.4970 -0.4547 -0.7391 -0.0014
                ( 51.83%)  -0.7199* H  23 s(100.00%)
                                           -1.0000
    66. (0.00744) BD*( 1) O   8 - H  24  
                ( 40.49%)   0.6363* O   8 s( 16.68%)p 5.00( 83.32%)
                                            0.0000  0.4084 -0.6465  0.0419  0.6431
                ( 59.51%)  -0.7714* H  24 s(100.00%)
                                            1.0000
    67. (0.01003) BD*( 1) C   9 - C  10  
                ( 50.75%)   0.7124* C   9 s( 25.13%)p 2.98( 74.87%)
                                            0.0000  0.5013 -0.5740  0.6120 -0.2112
                ( 49.25%)  -0.7018* C  10 s( 25.82%)p 2.87( 74.18%)
                                            0.0001  0.5081  0.5785 -0.5858  0.2529
    68. (0.01014) BD*( 1) C   9 - C  11  
                ( 51.07%)   0.7146* C   9 s( 24.76%)p 3.04( 75.24%)
                                            0.0000  0.4975 -0.4156 -0.7477  0.1441
                ( 48.93%)  -0.6995* C  11 s( 25.81%)p 2.87( 74.19%)
                                            0.0001  0.5080  0.4232  0.7436 -0.0995
    69. (0.01227) BD*( 1) C   9 - H  25  
                ( 48.95%)   0.6997* C   9 s( 24.66%)p 3.05( 75.34%)
                                            0.0000 -0.4966 -0.5603  0.1070  0.6542
                ( 51.05%)  -0.7145* H  25 s(100.00%)
                                           -1.0000
    70. (0.00592) BD*( 1) C  10 - H  26  
                ( 48.46%)   0.6961* C  10 s( 24.89%)p 3.02( 75.11%)
                                            0.0000 -0.4989  0.4840 -0.2463 -0.6754
                ( 51.54%)  -0.7179* H  26 s(100.00%)
                                           -1.0000
    71. (0.00658) BD*( 1) C  10 - H  27  
                ( 47.42%)   0.6886* C  10 s( 24.79%)p 3.03( 75.21%)
                                            0.0000 -0.4978 -0.4070 -0.6918  0.3285
                ( 52.58%)  -0.7251* H  27 s(100.00%)
                                           -1.0000
    72. (0.00572) BD*( 1) C  10 - H  28  
                ( 48.26%)   0.6947* C  10 s( 24.51%)p 3.08( 75.49%)
                                            0.0000 -0.4950  0.5152  0.3427  0.6099
[...]
   20       6.2932       -5.4324      11.7256        -4.8453      11.1385
   21       5.4357       -0.0305       5.4662        -5.7048      11.1405
   38     200.0112       -0.0014     200.0125         0.0020     200.0092
 Sum      215.8528      -23.3422     239.1950       -25.6465     241.4992

 Contributions to Isotropic shielding for atom    8 (   355.7771 ppm):
                         Standard Origin              Atomic Origin
 NLMO      Total    Paramagnetic  Diamagnetic   Paramagnetic  Diamagnetic
   10      26.1820        8.7641      17.4179        15.6422      10.5399
   11      -0.5078       -0.6657       0.1580        -1.8343       1.3266
   12      -0.9016       -1.0417       0.1401        -0.9949       0.0933
   17      -0.2499       -0.4261       0.1762        -1.0571       0.8072
   22      21.1524       10.7242      10.4282         6.7410      14.4114
   27      -0.5045       -1.1295       0.6249        -1.1979       0.6933
   39     271.1855       -0.0059     271.1914        -0.0034     271.1889
   43      34.7014        0.6345      34.0670        -2.6910      37.3925
   44       3.4681      -34.9223      38.3903       -36.4557      39.9237
 Sum      354.5256      -18.0684     372.5940       -21.8512     376.3767

 Contributions to Isotropic shielding for atom    9 (   215.2385 ppm):
                         Standard Origin              Atomic Origin
 NLMO      Total    Paramagnetic  Diamagnetic   Paramagnetic  Diamagnetic
   10       0.0148       -0.3801       0.3948        -1.0197       1.0345
   16       4.4706       -8.2978      12.7684        -3.2724       7.7430
   17       0.4296       -0.0729       0.5025        -0.5925       1.0221
   23      -1.0271       -5.2786       4.2514        -8.6707       7.6436
   24      -1.4549       -4.6406       3.1856        -8.9154       7.4605
   25       7.6057       -5.2853      12.8910        -3.3302      10.9358
   26       0.9059       -0.3526       1.2585        -0.1613       1.0672
   27       0.6233       -0.6999       1.3232        -0.4037       1.0270
   29       0.9640       -0.3418       1.3059        -0.1048       1.0689
   30       0.7580       -0.5503       1.3083        -0.2196       0.9776
   40     199.9145        0.0005     199.9140         0.0001     199.9144
 Sum      213.2043      -25.8993     239.1036       -26.6903     239.8946

 Contributions to Isotropic shielding for atom   10 (   221.0880 ppm):
                         Standard Origin              Atomic Origin
 NLMO      Total    Paramagnetic  Diamagnetic   Paramagnetic  Diamagnetic
   23       4.3531      -10.6346      14.9876        -3.5173       7.8704
   24      -0.4910        0.1747      -0.6657        -1.2431       0.7522
   25       0.3603       -0.2361       0.5964        -0.6845       1.0447
   26       5.8448       -1.9002       7.7450        -5.1966      11.0414
   27       6.3048       -5.5078      11.8126        -5.0721      11.3769
   28       4.7048        0.7073       3.9976        -6.3578      11.0627
   31      -0.2940       -0.9943       0.7002        -1.2649       0.9709
   41     200.0750       -0.0034     200.0785         0.0021     200.0730
 Sum      220.8578      -18.3943     239.2521       -23.3342     244.1920

 Contributions to Isotropic shielding for atom   11 (   220.7880 ppm):
                         Standard Origin              Atomic Origin
 NLMO      Total    Paramagnetic  Diamagnetic   Paramagnetic  Diamagnetic
   23      -0.4975        0.1874      -0.6849        -1.2604       0.7629
   24       4.6259      -11.3173      15.9432        -3.4170       8.0429
   25       0.3484       -0.1661       0.5145        -0.6943       1.0428
   28      -0.3476       -0.9944       0.6468        -1.3377       0.9901
   29       5.6590       -1.7402       7.3992        -5.4544      11.1134
   30       5.9989       -4.7527      10.7516        -5.0873      11.0862
   31       4.6108        0.3659       4.2450        -6.5123      11.1231
   42     200.0743       -0.0038     200.0781         0.0023     200.0720
 Sum      220.4722      -18.4213     238.8935       -23.7611     244.2333

 Contributions to Isotropic shielding for atom   12 (    32.3621 ppm):
                         Standard Origin              Atomic Origin
 NLMO      Total    Paramagnetic  Diamagnetic   Paramagnetic  Diamagnetic
    1       1.3873       -0.3432       1.7305         0.3966       0.9907
    2      26.3156        0.1472      26.1684         0.4322      25.8834
    3       1.9029        2.3952      -0.4923         0.0621       1.8408
    4       1.9777        1.0966       0.8812         0.1372       1.8405
    6      -0.1152        0.5360      -0.6513        -1.0435       0.9282
 Sum       31.4683        3.8318      27.6365        -0.0154      31.4836

 Contributions to Isotropic shielding for atom   13 (    32.4171 ppm):
                         Standard Origin              Atomic Origin
 NLMO      Total    Paramagnetic  Diamagnetic   Paramagnetic  Diamagnetic
    1       1.3364       -0.1779       1.5143         0.3438       0.9926
    2       1.9154        2.3537      -0.4383         0.0737       1.8417
    3      26.3455        0.1151      26.2305         0.4377      25.9079
    4       1.9678        1.2361       0.7317         0.1280       1.8398
    5      -0.1298        0.6193      -0.7491        -1.0593       0.9296
 Sum       31.4354        4.1463      27.2891        -0.0761      31.5115

 Contributions to Isotropic shielding for atom   14 (    32.6217 ppm):
                         Standard Origin              Atomic Origin
 NLMO      Total    Paramagnetic  Diamagnetic   Paramagnetic  Diamagnetic
    1       1.6814       -1.3347       3.0161         0.7920       0.8894
    2       1.9793        1.4089       0.5704         0.1502       1.8291
    3       1.9634        1.5959       0.3674         0.1361       1.8273
    4      26.3101        0.3484      25.9617         0.4137      25.8964
 Sum       31.9342        2.0186      29.9156         1.4920      30.4422

 Contributions to Isotropic shielding for atom   15 (    32.7244 ppm):
                         Standard Origin              Atomic Origin
 NLMO      Total    Paramagnetic  Diamagnetic   Paramagnetic  Diamagnetic
    1       0.7944        2.3052      -1.5108        -0.1709       0.9654
    5       1.3504        0.7316       0.6188         0.4257       0.9247
    6       1.4074        0.5108       0.8966         0.4941       0.9133
    7      26.5228       -0.0764      26.5992         0.4328      26.0900
 Sum       30.0751        3.4712      26.6039         1.1817      28.8934

 Contributions to Isotropic shielding for atom   16 (    31.9420 ppm):
                         Standard Origin              Atomic Origin
 NLMO      Total    Paramagnetic  Diamagnetic   Paramagnetic  Diamagnetic
    8       1.0972        0.2029       0.8943         0.1102       0.9870
    9       0.8290        0.4591       0.3700        -0.3051       1.1341
   10       0.4511        1.3794      -0.9283        -1.1850       1.6361
   11      26.8360        0.2470      26.5890         0.7434      26.0926
   12      -0.0124       -0.1036       0.0912        -1.0148       1.0024
   22       0.2949       -0.7219       1.0168        -0.6711       0.9660
 Sum       29.4957        1.4628      28.0329        -2.3223      31.8181

 Contributions to Isotropic shielding for atom   17 (    32.3465 ppm):
                         Standard Origin              Atomic Origin
 NLMO      Total    Paramagnetic  Diamagnetic   Paramagnetic  Diamagnetic
   12       1.2689        0.3950       0.8739         0.3693       0.8996
   13       1.0906        0.9813       0.1093         0.0757       1.0149
   14      26.4000        0.0533      26.3467         0.4791      25.9209
   15       1.9555        1.6728       0.2827         0.1515       1.8040
   24       0.0171       -0.5327       0.5498        -1.0351       1.0522
   30      -0.3813       -1.3242       0.9429        -1.0431       0.6618
 Sum       30.3508        1.2456      29.1052        -1.0027      31.3534

 Contributions to Isotropic shielding for atom   18 (    32.7236 ppm):
                         Standard Origin              Atomic Origin
 NLMO      Total    Paramagnetic  Diamagnetic   Paramagnetic  Diamagnetic
   12       1.4086        0.3861       1.0225         0.4126       0.9960
   13       1.1236        0.9344       0.1892         0.1378       0.9858
   14       1.9738        1.6926       0.2813         0.1414       1.8325
   15      26.5051        0.0394      26.4656         0.4271      26.0780
 Sum       31.0111        3.0525      27.9586         1.1189      29.8922

 Contributions to Isotropic shielding for atom   19 (    33.0900 ppm):
                         Standard Origin              Atomic Origin
 NLMO      Total    Paramagnetic  Diamagnetic   Paramagnetic  Diamagnetic
    8       1.2009        1.1593       0.0416         0.2296       0.9714
   10      -0.0742        0.0031      -0.0773        -1.0713       0.9970
   12       1.1353        1.2432      -0.1079         0.1224       1.0129
   16       1.0303        1.2719      -0.2416        -0.1037       1.1340
   17      26.7206       -0.0091      26.7297         0.4868      26.2337
   22      -0.0543       -1.1130       1.0587        -0.7224       0.6681
   26      -0.0884       -1.1759       1.0875        -0.9639       0.8755
   29      -0.0714       -1.2140       1.1426        -0.9549       0.8835
 Sum       29.7988        0.1656      29.6333        -2.9774      32.7762

 Contributions to Isotropic shielding for atom   20 (    32.7846 ppm):
                         Standard Origin              Atomic Origin
 NLMO      Total    Paramagnetic  Diamagnetic   Paramagnetic  Diamagnetic
    4      -0.0549       -1.1487       1.0938        -0.9589       0.9040
    5       1.3217        0.3761       0.9456         0.4609       0.8608
   13       1.3467       -0.0450       1.3917         0.4204       0.9263
   16      -0.0067       -0.2490       0.2423        -1.0262       1.0194
   18      26.4070        0.2372      26.1698         0.4030      26.0040
   19       1.9475        1.7244       0.2231         0.1738       1.7737
 Sum       30.9612        0.8950      30.0662        -0.5270      31.4882

 Contributions to Isotropic shielding for atom   21 (    32.5358 ppm):
                         Standard Origin              Atomic Origin
 NLMO      Total    Paramagnetic  Diamagnetic   Paramagnetic  Diamagnetic
    3      -0.0863       -1.2821       1.1958        -0.9618       0.8755
    5       1.0220        1.3368      -0.3148         0.0666       0.9554
   13       1.1349        1.1134       0.0215         0.1158       1.0191
   18       2.0841        1.3268       0.7573         0.3085       1.7756
   19      26.4488       -0.0479      26.4967         0.4649      25.9839
 Sum       30.6036        2.4471      28.1565        -0.0060      30.6096

 Contributions to Isotropic shielding for atom   22 (    32.4133 ppm):
                         Standard Origin              Atomic Origin
 NLMO      Total    Paramagnetic  Diamagnetic   Paramagnetic  Diamagnetic
    4      -0.0532       -1.2173       1.1641        -0.9540       0.9008
    6       1.2482        0.5000       0.7482         0.3852       0.8630
    9       1.3424        0.0607       1.2817         0.5233       0.8191
   10       0.1225       -0.4526       0.5751        -1.3366       1.4591
   16      -0.0034       -0.3203       0.3169        -1.0265       1.0231
   20      26.2232        0.2462      25.9770         0.3957      25.8275
   21       1.9880        1.4402       0.5478         0.1271       1.8609
 Sum       30.8677        0.2568      30.6109        -1.8858      32.7535

 Contributions to Isotropic shielding for atom   23 (    32.0158 ppm):
                         Standard Origin              Atomic Origin
 NLMO      Total    Paramagnetic  Diamagnetic   Paramagnetic  Diamagnetic
    2      -0.0907       -1.3421       1.2515        -0.9666       0.8759
    6       1.0203        1.3489      -0.3286         0.0585       0.9618
    9       1.1496        1.0286       0.1210         0.2394       0.9102
   10       0.0674       -0.0790       0.1464        -1.4939       1.5613
   20       2.0745        1.1766       0.8979         0.2044       1.8701
   21      26.2015        0.0063      26.1952         0.4350      25.7664
 Sum       30.4225        2.1392      28.2834        -1.5232      31.9457

 Contributions to Isotropic shielding for atom   24 (    35.0556 ppm):
                         Standard Origin              Atomic Origin
 NLMO      Total    Paramagnetic  Diamagnetic   Paramagnetic  Diamagnetic
    8      -0.1728        0.1556      -0.3284        -1.0919       0.9191
   10       1.5758        1.8767      -0.3009         0.8547       0.7211
   11       0.1541        0.3378      -0.1838        -0.8729       1.0270
   22      23.0214       -0.4557      23.4771        -0.1529      23.1742
   43       4.0786        1.1281       2.9504         2.1609       1.9177
   44       5.6126        2.5302       3.0824         2.4477       3.1649
 Sum       34.2696        5.5726      28.6970         3.3456      30.9240

 Contributions to Isotropic shielding for atom   25 (    32.5285 ppm):
                         Standard Origin              Atomic Origin
 NLMO      Total    Paramagnetic  Diamagnetic   Paramagnetic  Diamagnetic
   16       1.6209       -0.4412       2.0621         0.6539       0.9670
   23       1.0822        0.9888       0.0934         0.0289       1.0533
   24       1.0138        1.1641      -0.1503         0.0073       1.0065
   25      26.4128        0.1659      26.2470         0.3336      26.0793
   27       0.1608       -0.9813       1.1422        -0.8736       1.0345
   30       0.2089       -0.9487       1.1576        -0.7624       0.9712
 Sum       30.4994       -0.0525      30.5519        -0.6123      31.1117

 Contributions to Isotropic shielding for atom   26 (    32.8679 ppm):
                         Standard Origin              Atomic Origin
 NLMO      Total    Paramagnetic  Diamagnetic   Paramagnetic  Diamagnetic
   16      -0.0991        0.2010      -0.3001        -1.0343       0.9352
   23       1.3921       -0.3322       1.7243         0.4562       0.9359
   26      26.4825        0.2115      26.2709         0.4199      26.0626
   27       2.1137        0.8853       1.2283         0.3019       1.8117
   28       1.9127        2.1723      -0.2595         0.1087       1.8040
 Sum       31.8019        3.1380      28.6639         0.2524      31.5494

 Contributions to Isotropic shielding for atom   27 (    31.7711 ppm):
                         Standard Origin              Atomic Origin
 NLMO      Total    Paramagnetic  Diamagnetic   Paramagnetic  Diamagnetic
   23       1.4916       -1.0652       2.5568         0.4712       1.0204
   26       2.0009        0.9993       1.0016         0.1968       1.8041
   27      25.9708        0.3112      25.6596         0.4108      25.5600
   28       1.8388        1.5142       0.3246        -0.0849       1.9237
   43      -0.3005        0.3242      -0.6247         0.8104      -1.1109
 Sum       31.0017        2.0837      28.9179         1.8043      29.1973

 Contributions to Isotropic shielding for atom   28 (    32.6085 ppm):
                         Standard Origin              Atomic Origin
 NLMO      Total    Paramagnetic  Diamagnetic   Paramagnetic  Diamagnetic
   23       1.3235        0.1841       1.1394         0.3737       0.9498
   24      -0.2293        0.5764      -0.8057        -1.3686       1.1393
   26       1.9180        1.9728      -0.0547         0.0660       1.8520
   27       2.0403        1.3809       0.6594         0.1140       1.9262
   28      26.4233        0.0334      26.3899         0.4587      25.9646
   31      -0.1704       -1.1111       0.9408        -1.0354       0.8650
 Sum       31.3055        3.0363      28.2691        -1.3916      32.6970

 Contributions to Isotropic shielding for atom   29 (    32.6800 ppm):
                         Standard Origin              Atomic Origin
 NLMO      Total    Paramagnetic  Diamagnetic   Paramagnetic  Diamagnetic
   24       1.4348       -0.4416       1.8764         0.4721       0.9627
   29      26.3803        0.2122      26.1681         0.4297      25.9506
   30       2.0304        1.0455       0.9849         0.2501       1.7803
   31       1.8939        2.1672      -0.2733         0.0853       1.8086
 Sum       31.7395        2.9834      28.7561         1.2373      30.5022

 Contributions to Isotropic shielding for atom   30 (    32.4051 ppm):
                         Standard Origin              Atomic Origin
 NLMO      Total    Paramagnetic  Diamagnetic   Paramagnetic  Diamagnetic
   12      -0.0952        0.0295      -0.1247        -1.0786       0.9834
   24       1.5224       -1.1194       2.6417         0.5045       1.0178
   29       2.0122        1.1745       0.8377         0.1863       1.8259
   30      26.3788        0.2648      26.1140         0.4053      25.9735
   31       1.8377        1.5853       0.2524        -0.0708       1.9086
 Sum       31.6559        1.9348      29.7211        -0.0533      31.7092

 Contributions to Isotropic shielding for atom   31 (    32.5674 ppm):
                         Standard Origin              Atomic Origin
 NLMO      Total    Paramagnetic  Diamagnetic   Paramagnetic  Diamagnetic
   23      -0.2108        0.6515      -0.8623        -1.3083       1.0974
   24       1.3854       -0.0125       1.3978         0.4009       0.9844
   28      -0.1795       -1.0348       0.8553        -1.0167       0.8371
   29       1.9158        2.0038      -0.0879         0.0655       1.8503
   30       1.9748        1.4378       0.5370         0.0878       1.8870
   31      26.3497        0.0544      26.2953         0.4598      25.8899
 Sum       31.2353        3.1002      28.1352        -1.3108      32.5462
 
 1\1\GINC-COMPUTE-6-2\SP\RHF\STO-3G\C10H20O1\YTSAI.IQUIR\03-Aug-2021\0\
 \# rhf/STO-3G nmr pop=nbo\\comment\\0,1\C,0,-0.591920544,0.231902345,-
 3.306731313\C,0,-1.029809834,-0.126447022,-1.888029557\C,0,-0.47027284
 3,-1.495990568,0.165949055\C,0,-1.397021715,0.784795963,0.455649469\C,
 0,-0.388430782,-0.225327728,1.04857074\C,0,-1.087732369,1.127964511,-1
 .003295776\C,0,-0.114725587,-1.205612351,-1.292887565\O,0,0.341849511,
 -2.555597642,0.646196175\C,0,1.04467939,0.385119037,1.230504075\C,0,2.
 038971392,-0.582654682,1.884503792\C,0,1.013682293,1.66920738,2.075177
 884\H,0,-0.595750787,-0.654448137,-3.949818944\H,0,-1.270717039,0.9692
 11527,-3.748084235\H,0,0.419006724,0.65330073,-3.316713388\H,0,-2.0449
 36947,-0.542170914,-1.94760216\H,0,-1.501088735,-1.873420493,0.1943858
 13\H,0,-1.447899987,1.700193947,1.05254675\H,0,-2.404574454,0.35013647
 3,0.507042272\H,0,-0.740367761,-0.500743412,2.052705954\H,0,-0.1408951
 77,1.67745325,-1.063054011\H,0,-1.862197761,1.8061845,-1.382106101\H,0
 ,0.939222844,-0.911370516,-1.37242557\H,0,-0.199551713,-2.130566512,-1
 .878042181\H,0,0.073468043,-2.737022536,1.563040869\H,0,1.4568723,0.65
 5782805,0.251675447\H,0,1.619842109,-1.033903863,2.789736074\H,0,2.333
 998062,-1.378413289,1.195708657\H,0,2.964883657,-0.067807074,2.1649138
 69\H,0,0.514991221,1.499508729,3.035268601\H,0,0.49856436,2.481285744,
 1.554228535\H,0,2.027862128,2.029449799,2.280986769\\Version=EM64L-G09
 RevC.01\State=1-A\HF=-459.6176608\RMSD=9.050e-09\Dipole=-0.3910264,0.2
 91134,0.2174276\Quadrupole=0.3335827,-1.93599,1.6024074,1.9148029,-0.4
 512643,-1.4068831\PG=C01 [X(C10H20O1)]\\@


 ACHIEVEMENT--  THE MAN WHO ROWS THE BOAT GENERALLY 
                DOESN'T HAVE TIME TO ROCK IT.

                   -- FROM THE BACK OF A SUGAR PACKET
 Job cpu time:  0 days  0 hours  0 minutes 49.2 seconds.
 File lengths (MBytes):  RWF=      5 Int=      0 D2E=      0 Chk=      1 Scr=      1
 Normal termination of Gaussian 09 at Tue Aug  3 16:35:54 2021.
