 Entering Gaussian System, Link 0=g09
 Input=/home/ytsai.iquir/menthol/02_menthol_M0040_MMFF_NMR_rhf_STO-3G_nbo.gjc
 Output=/home/ytsai.iquir/menthol/02_menthol_M0040_MMFF_NMR_rhf_STO-3G_nbo.log
 Initial command:
 /share/apps/Gaussian09/EM64T.SSE4.2-enabled/g09/l1.exe /tmp/Gau-9105.inp -scrdir=/tmp/
 Entering Link 1 = /share/apps/Gaussian09/EM64T.SSE4.2-enabled/g09/l1.exe PID=      9106.
  
 Copyright (c) 1988,1990,1992,1993,1995,1998,2003,2009,2011,
            Gaussian, Inc.  All Rights Reserved.
  
 This is part of the Gaussian(R) 09 program.  It is based on
 the Gaussian(R) 03 system (copyright 2003, Gaussian, Inc.),
 the Gaussian(R) 98 system (copyright 1998, Gaussian, Inc.),
 the Gaussian(R) 94 system (copyright 1995, Gaussian, Inc.),
 the Gaussian 92(TM) system (copyright 1992, Gaussian, Inc.),
 the Gaussian 90(TM) system (copyright 1990, Gaussian, Inc.),
 the Gaussian 88(TM) system (copyright 1988, Gaussian, Inc.),
 the Gaussian 86(TM) system (copyright 1986, Carnegie Mellon
 University), and the Gaussian 82(TM) system (copyright 1983,
 Carnegie Mellon University). Gaussian is a federally registered
 trademark of Gaussian, Inc.
  
 This software contains proprietary and confidential information,
 including trade secrets, belonging to Gaussian, Inc.
  
 This software is provided under written license and may be
 used, copied, transmitted, or stored only in accord with that
 written license.
  
 The following legend is applicable only to US Government
 contracts under FAR:
  
                    RESTRICTED RIGHTS LEGEND
  
 Use, reproduction and disclosure by the US Government is
 subject to restrictions as set forth in subparagraphs (a)
 and (c) of the Commercial Computer Software - Restricted
 Rights clause in FAR 52.227-19.
  
 Gaussian, Inc.
 340 Quinnipiac St., Bldg. 40, Wallingford CT 06492
  
  
 ---------------------------------------------------------------
 Warning -- This program may not be used in any manner that
 competes with the business of Gaussian, Inc. or will provide
 assistance to any competitor of Gaussian, Inc.  The licensee
 of this program is prohibited from giving any competitor of
 Gaussian, Inc. access to this program.  By using this program,
 the user acknowledges that Gaussian, Inc. is engaged in the
 business of creating and licensing software in the field of
 computational chemistry and represents and warrants to the
 licensee that it is not a competitor of Gaussian, Inc. and that
 it will not use this program in any manner prohibited above.
 ---------------------------------------------------------------
  

 Cite this work as:
 Gaussian 09, Revision C.01,
 M. J. Frisch, G. W. Trucks, H. B. Schlegel, G. E. Scuseria, 
 M. A. Robb, J. R. Cheeseman, G. Scalmani, V. Barone, B. Mennucci, 
 G. A. Petersson, H. Nakatsuji, M. Caricato, X. Li, H. P. Hratchian, 
 A. F. Izmaylov, J. Bloino, G. Zheng, J. L. Sonnenberg, M. Hada, 
 M. Ehara, K. Toyota, R. Fukuda, J. Hasegawa, M. Ishida, T. Nakajima, 
 Y. Honda, O. Kitao, H. Nakai, T. Vreven, J. A. Montgomery, Jr., 
 J. E. Peralta, F. Ogliaro, M. Bearpark, J. J. Heyd, E. Brothers, 
 K. N. Kudin, V. N. Staroverov, T. Keith, R. Kobayashi, J. Normand, 
 K. Raghavachari, A. Rendell, J. C. Burant, S. S. Iyengar, J. Tomasi, 
 M. Cossi, N. Rega, J. M. Millam, M. Klene, J. E. Knox, J. B. Cross, 
 V. Bakken, C. Adamo, J. Jaramillo, R. Gomperts, R. E. Stratmann, 
 O. Yazyev, A. J. Austin, R. Cammi, C. Pomelli, J. W. Ochterski, 
 R. L. Martin, K. Morokuma, V. G. Zakrzewski, G. A. Voth, 
 P. Salvador, J. J. Dannenberg, S. Dapprich, A. D. Daniels, 
 O. Farkas, J. B. Foresman, J. V. Ortiz, J. Cioslowski, 
 and D. J. Fox, Gaussian, Inc., Wallingford CT, 2010.
 
 ******************************************
 Gaussian 09:  EM64L-G09RevC.01 23-Sep-2011
                 3-Aug-2021 
 ******************************************
 %nprocshared=4
 Will use up to    4 processors via shared memory.
 ------------------------
 # rhf/STO-3G nmr pop=nbo
 ------------------------
 1/38=1/1;
 2/12=2,17=6,18=5,40=1/2;
 3/6=3,11=1,16=1,25=1,30=1,116=1/1,2,8,3;
 4//1;
 5/5=2,38=5/2;
 8/6=1,10=90,11=11/1;
 10/13=100,45=16/2;
 6/7=2,8=2,9=2,10=2,28=1,64=1/1,7;
 99/9=1/99;
 -------
 comment
 -------
 Charge =  0 Multiplicity = 1
 Symbolic Z-Matrix:
 6                    -1.0325   -0.04436  -3.20239 
 6                    -1.23281  -0.25678  -1.70272 
 6                    -0.45782  -1.56643   0.3223 
 6                    -1.1627    0.86269   0.57263 
 6                    -0.33377  -0.28516   1.18354 
 6                    -0.99917   1.04626  -0.93535 
 6                    -0.30919  -1.35944  -1.18492 
 8                     0.43663  -2.5841    0.75917 
 6                     1.10896   0.09532   1.64596 
 6                     1.07983   1.1274    2.78487 
 6                     2.05534   0.59183   0.55634 
 1                    -1.22917  -0.96909  -3.75504 
 1                    -1.71578   0.72344  -3.58033 
 1                    -0.00859   0.27325  -3.42714 
 1                    -2.27295  -0.57155  -1.54441 
 1                    -1.46628  -1.96726   0.49075 
 1                    -0.96318   1.81267   1.07737 
 1                    -2.22292   0.64606   0.76447 
 1                    -0.83907  -0.543     2.12806 
 1                    -0.00545   1.44216  -1.16524 
 1                    -1.71487   1.80488  -1.27626 
 1                     0.73192  -1.14433  -1.44614 
 1                    -0.53486  -2.30513  -1.69553 
 1                     1.32853  -2.35724   0.44629 
 1                     1.56332  -0.80496   2.07976 
 1                     0.75303   2.11249   2.43866 
 1                     0.41175   0.8059    3.59058 
 1                     2.07987   1.24771   3.21654 
 1                     1.73082   1.54858   0.13928 
 1                     2.16325  -0.13185  -0.25232 
 1                     3.05781   0.75005   0.97122 
 
                          Input orientation:                          
 ---------------------------------------------------------------------
 Center     Atomic      Atomic             Coordinates (Angstroms)
 Number     Number       Type             X           Y           Z
 ---------------------------------------------------------------------
      1          6           0       -1.032501   -0.044357   -3.202394
      2          6           0       -1.232806   -0.256778   -1.702719
      3          6           0       -0.457818   -1.566435    0.322302
      4          6           0       -1.162699    0.862689    0.572630
      5          6           0       -0.333770   -0.285159    1.183544
      6          6           0       -0.999173    1.046263   -0.935350
      7          6           0       -0.309192   -1.359444   -1.184921
      8          8           0        0.436630   -2.584097    0.759174
      9          6           0        1.108964    0.095318    1.645965
     10          6           0        1.079834    1.127399    2.784871
     11          6           0        2.055341    0.591827    0.556344
     12          1           0       -1.229175   -0.969088   -3.755043
     13          1           0       -1.715778    0.723442   -3.580330
     14          1           0       -0.008592    0.273249   -3.427141
     15          1           0       -2.272951   -0.571549   -1.544415
     16          1           0       -1.466278   -1.967259    0.490753
     17          1           0       -0.963175    1.812673    1.077370
     18          1           0       -2.222917    0.646060    0.764469
     19          1           0       -0.839070   -0.543005    2.128059
     20          1           0       -0.005446    1.442161   -1.165238
     21          1           0       -1.714870    1.804879   -1.276264
     22          1           0        0.731916   -1.144333   -1.446145
     23          1           0       -0.534858   -2.305132   -1.695535
     24          1           0        1.328528   -2.357243    0.446285
     25          1           0        1.563318   -0.804957    2.079763
     26          1           0        0.753032    2.112493    2.438661
     27          1           0        0.411751    0.805898    3.590580
     28          1           0        2.079874    1.247713    3.216541
     29          1           0        1.730820    1.548581    0.139284
     30          1           0        2.163249   -0.131854   -0.252322
     31          1           0        3.057811    0.750045    0.971219
 ---------------------------------------------------------------------
                    Distance matrix (angstroms):
                    1          2          3          4          5
     1  C    0.000000
     2  C    1.527832   0.000000
     3  C    3.882069   2.533084   0.000000
     4  C    3.884648   2.536796   2.541685   0.000000
     5  C    4.447771   3.023175   1.548804   1.542042   0.000000
     6  C    2.515960   1.530149   2.949736   1.527889   2.589432
     7  C    2.514523   1.528741   1.528612   2.958942   2.600831
     8  O    4.929772   3.776817   1.423563   3.804338   2.461447
     9  C    5.302072   4.101407   2.639756   2.627044   1.562075
    10  C    6.456184   5.234760   3.960475   3.161176   2.560829
    11  C    4.905875   4.078653   3.320970   3.229460   2.621133
    12  H    1.095093   2.172426   4.192440   4.699849   5.065486
    13  H    1.095088   2.172445   4.696438   4.191940   5.061790
    14  H    1.095342   2.180198   4.200543   4.204471   4.655747
    15  H    2.136713   1.098200   2.787317   2.787755   3.359196
    16  H    4.186293   2.791339   1.098193   2.847362   2.142893
    17  H    4.665806   3.476237   3.499126   1.094094   2.192789
    18  H    4.198782   2.807571   2.864650   1.098996   2.147479
    19  H    5.357219   3.861582   2.110337   2.121337   1.101781
    20  H    2.722973   2.163721   3.386600   2.166842   2.933975
    21  H    2.755953   2.159788   3.937176   2.147330   3.510891
    22  H    2.721677   2.171109   2.172795   3.419526   2.964647
    23  H    2.762133   2.164009   2.150180   3.946371   3.522758
    24  H    4.923084   3.948493   1.957494   4.073099   2.756867
    25  H    5.934473   4.735607   2.784513   3.533222   2.161560
    26  H    6.297748   5.167981   4.413575   2.951967   2.916366
    27  H    6.996663   5.643834   4.131072   3.404430   2.745911
    28  H    7.249762   6.118534   4.768221   4.201522   3.508340
    29  H    4.619546   3.928788   3.811424   3.005111   2.952222
    30  H    4.350103   3.694922   3.042731   3.568136   2.884497
    31  H    5.897523   5.154904   4.259909   4.240786   3.552401
                    6          7          8          9         10
     6  C    0.000000
     7  C    2.515112   0.000000
     8  O    4.255873   2.415685   0.000000
     9  C    3.465794   3.484453   2.901326   0.000000
    10  C    4.262499   4.886003   4.276956   1.537253   0.000000
    11  C    3.429536   3.525689   3.570415   1.526245   2.490940
    12  H    3.473501   2.757585   5.075561   5.980864   7.245499
    13  H    2.759285   3.472014   5.865490   5.973932   6.963793
    14  H    2.790668   2.789910   5.088014   5.197788   6.364223
    15  H    2.147274   2.146244   4.086404   4.696869   5.733263
    16  H    3.366493   2.125129   2.018316   3.495799   4.617636
    17  H    2.154001   3.950694   4.625180   2.750704   2.749372
    18  H    2.132392   3.388881   4.184152   3.490241   3.901522
    19  H    3.454835   3.452997   2.768992   2.105875   2.627516
    20  H    1.094109   2.818091   4.484367   3.310401   4.108560
    21  H    1.097244   3.463700   5.294816   4.408635   4.976160
    22  H    2.838361   1.094721   2.650198   3.352617   4.814904
    23  H    3.467754   1.098170   2.654658   4.430568   5.870565
    24  H    4.348673   2.517650   0.972031   2.739068   4.203993
    25  H    4.368556   3.804197   2.485703   1.097776   2.113038
    26  H    3.948546   5.129621   4.997874   2.196372   1.094107
    27  H    4.746844   5.292814   4.416961   2.184619   1.094927
    28  H    5.172940   5.646040   4.839594   2.176554   1.095853
    29  H    2.976579   3.791013   4.374725   2.183751   2.756865
    30  H    3.443167   2.913706   3.165097   2.183259   3.461798
    31  H    4.492424   4.520575   4.246417   2.163782   2.710004
                   11         12         13         14         15
    11  C    0.000000
    12  H    5.640262   0.000000
    13  H    5.599173   1.769736   0.000000
    14  H    4.497718   1.772214   1.772181   0.000000
    15  H    4.949823   2.476769   2.476367   3.063603   0.000000
    16  H    4.353737   4.367992   4.886291   4.742850   2.596274
    17  H    3.297480   5.582219   4.842211   4.855068   3.778066
    18  H    4.283660   4.901246   4.374981   4.755189   2.610751
    19  H    3.483640   5.911398   5.912547   5.675933   3.942575
    20  H    2.816693   3.744159   3.045400   2.546090   3.056203
    21  H    4.363994   3.751685   2.545236   3.143812   2.455762
    22  H    2.962376   3.034402   3.746269   2.546024   3.060549
    23  H    4.491376   2.551208   3.757563   3.150153   2.459495
    24  H    3.039307   5.110770   5.913717   4.869374   4.485782
    25  H    2.124594   6.470697   6.717524   5.827472   5.282623
    26  H    2.748008   7.196336   6.652273   6.194395   5.676755
    27  H    3.457427   7.733136   7.480316   7.050448   5.955934
    28  H    2.739970   8.029134   7.802518   7.032054   6.702499
    29  H    1.092992   5.501455   5.137647   4.167903   4.833215
    30  H    1.090550   4.947581   5.182086   3.867878   4.641412
    31  H    1.096403   6.608421   6.595791   5.382912   6.040865
                   16         17         18         19         20
    16  H    0.000000
    17  H    3.858123   0.000000
    18  H    2.734384   1.745234   0.000000
    19  H    2.258907   2.582357   2.277781   0.000000
    20  H    4.062078   2.466539   3.045442   3.934668   0.000000
    21  H    4.172910   2.470769   2.401159   4.227175   1.751006
    22  H    3.043163   4.240913   4.101628   3.950257   2.704175
    23  H    2.400325   4.982848   4.196510   4.221080   3.821478
    24  H    2.822234   4.799830   4.661955   3.289119   4.337276
    25  H    3.613080   3.773585   4.262748   2.417109   4.247421
    26  H    5.036274   2.210966   3.716129   3.111740   3.743357
    27  H    4.563586   3.036485   3.867031   2.350119   4.816294
    28  H    5.508280   3.762363   4.988852   3.593284   4.856579
    29  H    4.765091   2.864849   4.103344   3.864491   2.174333
    30  H    4.134530   3.914562   4.569187   3.853464   2.830932
    31  H    5.299242   4.160382   5.285796   4.265670   3.798292
                   21         22         23         24         25
    21  H    0.000000
    22  H    3.835815   0.000000
    23  H    4.296558   1.736193   0.000000
    24  H    5.436241   2.325594   2.839422   0.000000
    25  H    5.368490   3.638466   4.572280   2.265606   0.000000
    26  H    4.470552   5.069426   6.185923   4.927402   3.049078
    27  H    5.404318   5.410592   6.206254   4.553299   2.490687
    28  H    5.907268   5.411055   6.602122   4.608095   2.402612
    29  H    3.733932   3.280729   4.832283   3.938470   3.054940
    30  H    4.454122   2.121094   3.753103   2.477331   2.500322
    31  H    5.379809   3.852545   5.417837   3.594609   2.424956
                   26         27         28         29         30
    26  H    0.000000
    27  H    1.774988   0.000000
    28  H    1.764497   1.765712   0.000000
    29  H    2.561484   3.768683   3.111571   0.000000
    30  H    3.777194   4.326087   3.734055   1.778823   0.000000
    31  H    3.053138   3.723682   2.499101   1.758033   1.753580
                   31
    31  H    0.000000
 Stoichiometry    C10H20O
 Framework group  C1[X(C10H20O)]
 Deg. of freedom    87
 Full point group                 C1      NOp   1
 Largest Abelian subgroup         C1      NOp   1
 Largest concise Abelian subgroup C1      NOp   1
                         Standard orientation:                         
 ---------------------------------------------------------------------
 Center     Atomic      Atomic             Coordinates (Angstroms)
 Number     Number       Type             X           Y           Z
 ---------------------------------------------------------------------
      1          6           0       -3.306120   -0.553311    0.659527
      2          6           0       -2.104050   -0.255547   -0.235255
      3          6           0       -0.151321    1.310902   -0.622042
      4          6           0        0.088949   -1.168880   -1.125150
      5          6           0        0.841958    0.134564   -0.790627
      6          6           0       -1.141047   -1.444365   -0.261634
      7          6           0       -1.384118    1.010170    0.230265
      8          8           0        0.495930    2.482092   -0.136336
      9          6           0        1.953488    0.011704    0.300009
     10          6           0        3.087771   -0.920010   -0.156561
     11          6           0        1.489030   -0.422185    1.687613
     12          1           0       -4.010578    0.285108    0.654843
     13          1           0       -3.840862   -1.442018    0.308147
     14          1           0       -2.998065   -0.731033    1.695525
     15          1           0       -2.477607   -0.088289   -1.254334
     16          1           0       -0.513598    1.568512   -1.626243
     17          1           0        0.755972   -2.035542   -1.093228
     18          1           0       -0.250462   -1.098706   -2.168063
     19          1           0        1.410709    0.387702   -1.699672
     20          1           0       -0.840260   -1.704169    0.757730
     21          1           0       -1.659061   -2.325946   -0.659655
     22          1           0       -1.114705    0.933160    1.288519
     23          1           0       -2.067518    1.868227    0.178491
     24          1           0        0.654103    2.367129    0.815824
     25          1           0        2.415761    1.001170    0.411239
     26          1           0        2.772055   -1.967099   -0.188190
     27          1           0        3.451861   -0.639418   -1.150328
     28          1           0        3.936271   -0.855050    0.533890
     29          1           0        1.107948   -1.446590    1.688248
     30          1           0        0.724274    0.243402    2.089413
     31          1           0        2.329090   -0.395544    2.391665
 ---------------------------------------------------------------------
 Rotational constants (GHZ):      1.5206574      0.7958793      0.6677140
 Standard basis: STO-3G (5D, 7F)
 There are    75 symmetry adapted basis functions of A   symmetry.
 Integral buffers will be    131072 words long.
 Raffenetti 1 integral format.
 Two-electron integral symmetry is turned on.
    75 basis functions,   225 primitive gaussians,    75 cartesian basis functions
    44 alpha electrons       44 beta electrons
       nuclear repulsion energy       699.0988171003 Hartrees.
 NAtoms=   31 NActive=   31 NUniq=   31 SFac= 1.00D+00 NAtFMM=   60 NAOKFM=F Big=F
 One-electron integrals computed using PRISM.
 NBasis=    75 RedAO= T  NBF=    75
 NBsUse=    75 1.00D-06 NBFU=    75
 Harris functional with IExCor=  205 diagonalized for initial guess.
 ExpMin= 1.69D-01 ExpMax= 1.31D+02 ExpMxC= 1.31D+02 IAcc=1 IRadAn=         1 AccDes= 0.00D+00
 HarFok:  IExCor=  205 AccDes= 0.00D+00 IRadAn=         1 IDoV= 1
 ScaDFX=  1.000000  1.000000  1.000000  1.000000
 FoFCou: FMM=F IPFlag=           0 FMFlag=      100000 FMFlg1=           0
         NFxFlg=           0 DoJE=T BraDBF=F KetDBF=T FulRan=T
         Omega=  0.000000  0.000000  1.000000  0.000000  0.000000 ICntrl=     500 IOpCl=  0
         NMat0=    1 NMatS0=    1 NMatT0=    0 NMatD0=    1 NMtDS0=    0 NMtDT0=    0
         I1Cent=           4 NGrid=           0.
 Petite list used in FoFCou.
 Initial guess orbital symmetries:
       Occupied  (A) (A) (A) (A) (A) (A) (A) (A) (A) (A) (A) (A)
                 (A) (A) (A) (A) (A) (A) (A) (A) (A) (A) (A) (A)
                 (A) (A) (A) (A) (A) (A) (A) (A) (A) (A) (A) (A)
                 (A) (A) (A) (A) (A) (A) (A) (A)
       Virtual   (A) (A) (A) (A) (A) (A) (A) (A) (A) (A) (A) (A)
                 (A) (A) (A) (A) (A) (A) (A) (A) (A) (A) (A) (A)
                 (A) (A) (A) (A) (A) (A) (A)
 The electronic state of the initial guess is 1-A.
 Requested convergence on RMS density matrix=1.00D-08 within 128 cycles.
 Requested convergence on MAX density matrix=1.00D-06.
 Requested convergence on             energy=1.00D-06.
 No special actions if energy rises.
 Keep R1 ints in memory in canonical form, NReq=4898789.
 SCF Done:  E(RHF) =  -459.612924145     A.U. after   10 cycles
             Convg  =    0.8782D-08             -V/T =  2.0089
 Range of M.O.s used for correlation:     1    75
 NBasis=    75 NAE=    44 NBE=    44 NFC=     0 NFV=     0
 NROrb=     75 NOA=    44 NOB=    44 NVA=    31 NVB=    31
          Differentiating once with respect to magnetic field using GIAOs.
          Electric field/nuclear overlap derivatives assumed to be zero.
          Keep R3 ints in memory in canonical form, NReq=4863575.
 FoFCou: FMM=F IPFlag=           0 FMFlag=           0 FMFlg1=           0
         NFxFlg=           0 DoJE=F BraDBF=F KetDBF=T FulRan=T
         Omega=  0.000000  0.000000  1.000000  0.000000  0.000000 ICntrl=    6100 IOpCl=  0
         NMat0=    1 NMatS0=    1 NMatT0=    0 NMatD0=    1 NMtDS0=    0 NMtDT0=    0
         I1Cent=           7 NGrid=          31.
 Symmetry not used in FoFCou.
          There are     3 degrees of freedom in the 1st order CPHF.  IDoFFX=0.
      3 vectors produced by pass  0 Test12= 4.55D-14 3.33D-08 XBig12= 6.23D+00 5.13D-01.
 AX will form     3 AO Fock derivatives at one time.
      3 vectors produced by pass  1 Test12= 4.55D-14 3.33D-08 XBig12= 9.83D-03 1.34D-02.
      3 vectors produced by pass  2 Test12= 4.55D-14 3.33D-08 XBig12= 7.01D-05 2.06D-03.
      3 vectors produced by pass  3 Test12= 4.55D-14 3.33D-08 XBig12= 1.82D-06 3.18D-04.
      3 vectors produced by pass  4 Test12= 4.55D-14 3.33D-08 XBig12= 1.87D-08 3.52D-05.
      3 vectors produced by pass  5 Test12= 4.55D-14 3.33D-08 XBig12= 3.15D-10 3.29D-06.
      3 vectors produced by pass  6 Test12= 4.55D-14 3.33D-08 XBig12= 3.86D-12 4.08D-07.
      1 vectors produced by pass  7 Test12= 4.55D-14 3.33D-08 XBig12= 4.64D-14 3.56D-08.
 Inverted reduced A of dimension    22 with in-core refinement.
 Calculating GIAO nuclear magnetic shielding tensors.
 SCF GIAO Magnetic shielding tensor (ppm):
      1  C    Isotropic =   221.0588   Anisotropy =    28.3377
   XX=   232.5211   YX=     4.0270   ZX=   -10.0061
   XY=     4.7812   YY=   213.0422   ZY=    -2.0549
   XZ=   -13.6293   YZ=    -2.4825   ZZ=   217.6131
   Eigenvalues:   211.0769   212.1490   239.9507
      2  C    Isotropic =   215.6268   Anisotropy =     7.1827
   XX=   219.4580   YX=    -0.1148   ZX=    -1.8065
   XY=    -0.4378   YY=   216.5162   ZY=     1.5668
   XZ=    -3.9343   YZ=     0.4869   ZZ=   210.9060
   Eigenvalues:   209.9083   216.5568   220.4152
      3  C    Isotropic =   188.8570   Anisotropy =    39.3471
   XX=   189.2898   YX=    14.2344   ZX=     5.7359
   XY=    11.7216   YY=   202.0103   ZY=    12.4545
   XZ=     5.5998   YZ=    13.6315   ZZ=   175.2708
   Eigenvalues:   169.9533   181.5292   215.0884
      4  C    Isotropic =   219.3640   Anisotropy =    13.9252
   XX=   223.6037   YX=     6.2005   ZX=    -4.1279
   XY=     7.8067   YY=   218.6149   ZY=     4.5915
   XZ=    -3.7169   YZ=     2.8420   ZZ=   215.8735
   Eigenvalues:   209.3397   220.1049   228.6475
      5  C    Isotropic =   211.8375   Anisotropy =    14.7816
   XX=   214.6326   YX=    -8.3998   ZX=     7.8460
   XY=    -2.0273   YY=   209.6096   ZY=     1.9684
   XZ=     7.1350   YZ=     0.0709   ZZ=   211.2702
   Eigenvalues:   202.6623   211.1583   221.6919
      6  C    Isotropic =   217.5541   Anisotropy =    15.9720
   XX=   224.3128   YX=    -3.7068   ZX=    -5.3262
   XY=    -7.0081   YY=   216.6026   ZY=     0.6220
   XZ=    -3.4174   YZ=     1.2916   ZZ=   211.7471
   Eigenvalues:   210.2684   214.1919   228.2022
      7  C    Isotropic =   215.1877   Anisotropy =    22.8529
   XX=   222.0313   YX=    12.3689   ZX=    -3.1302
   XY=    10.2995   YY=   214.3305   ZY=     0.9781
   XZ=    -2.4236   YZ=    -1.4562   ZZ=   209.2014
   Eigenvalues:   205.6079   209.5323   230.4230
      8  O    Isotropic =   357.7308   Anisotropy =    79.4612
   XX=   339.5051   YX=     8.8548   ZX=    -0.1618
   XY=     1.4698   YY=   331.7434   ZY=   -40.4958
   XZ=     4.3474   YZ=   -12.1016   ZZ=   401.9440
   Eigenvalues:   321.2877   341.1998   410.7049
      9  C    Isotropic =   215.6572   Anisotropy =    13.1205
   XX=   221.6334   YX=    -3.7776   ZX=     2.5340
   XY=    -3.8604   YY=   206.1368   ZY=    -0.7003
   XZ=     4.0191   YZ=     1.4207   ZZ=   219.2013
   Eigenvalues:   205.1580   217.4094   224.4042
     10  C    Isotropic =   220.5789   Anisotropy =    28.6967
   XX=   228.7323   YX=   -10.9542   ZX=    -8.6124
   XY=   -15.2890   YY=   214.8450   ZY=     4.2114
   XZ=    -6.3161   YZ=     2.5421   ZZ=   218.1594
   Eigenvalues:   206.8422   215.1845   239.7100
     11  C    Isotropic =   223.3260   Anisotropy =    18.8455
   XX=   221.5676   YX=    -0.3179   ZX=    -3.8773
   XY=     1.0653   YY=   215.0187   ZY=    -5.3465
   XZ=    -5.8930   YZ=    -2.7295   ZZ=   233.3917
   Eigenvalues:   214.1055   219.9828   235.8897
     12  H    Isotropic =    32.4554   Anisotropy =    14.0311
   XX=    38.4183   YX=    -5.4844   ZX=    -2.2128
   XY=    -5.1656   YY=    32.1243   ZY=     0.3107
   XZ=    -2.5668   YZ=     0.5763   ZZ=    26.8237
   Eigenvalues:    26.2518    29.3050    41.8095
     13  H    Isotropic =    32.4660   Anisotropy =    13.9907
   XX=    36.0334   YX=     6.6123   ZX=     0.0442
   XY=     6.5830   YY=    34.0410   ZY=     1.9561
   XZ=    -0.2519   YZ=     1.6367   ZZ=    27.3235
   Eigenvalues:    26.2704    29.3344    41.7931
     14  H    Isotropic =    32.7591   Anisotropy =    10.8019
   XX=    31.4787   YX=     0.6854   ZX=    -1.5760
   XY=     0.8068   YY=    27.7533   ZY=    -2.5132
   XZ=    -1.7410   YZ=    -2.5516   ZZ=    39.0452
   Eigenvalues:    27.1752    31.1416    39.9603
     15  H    Isotropic =    32.7879   Anisotropy =    12.2369
   XX=    33.5718   YX=    -0.4532   ZX=     5.0300
   XY=    -0.1183   YY=    27.4162   ZY=    -1.4982
   XZ=     4.9139   YZ=    -1.5491   ZZ=    37.3756
   Eigenvalues:    27.1381    30.2797    40.9458
     16  H    Isotropic =    31.3405   Anisotropy =    11.4455
   XX=    28.5877   YX=    -1.6240   ZX=     2.9304
   XY=    -0.9733   YY=    29.7907   ZY=    -4.0263
   XZ=     2.3355   YZ=    -5.1108   ZZ=    35.6430
   Eigenvalues:    27.2626    27.7879    38.9708
     17  H    Isotropic =    32.4225   Anisotropy =    12.4014
   XX=    34.4785   YX=    -4.5339   ZX=    -0.3612
   XY=    -4.7252   YY=    36.4128   ZY=     3.5032
   XZ=    -0.0619   YZ=     3.0605   ZZ=    26.3761
   Eigenvalues:    25.2331    31.3442    40.6901
     18  H    Isotropic =    32.5837   Anisotropy =    14.1486
   XX=    29.1570   YX=     1.4780   ZX=     2.0096
   XY=     1.3721   YY=    27.5410   ZY=     2.9982
   XZ=     1.8151   YZ=     2.8116   ZZ=    41.0531
   Eigenvalues:    26.5072    29.2278    42.0161
     19  H    Isotropic =    32.0734   Anisotropy =    12.9771
   XX=    32.0961   YX=     0.8162   ZX=    -4.9239
   XY=     0.2993   YY=    27.2885   ZY=    -2.8640
   XZ=    -5.2136   YZ=    -3.4713   ZZ=    36.8357
   Eigenvalues:    26.1079    29.3876    40.7248
     20  H    Isotropic =    33.0463   Anisotropy =     8.9993
   XX=    32.9376   YX=    -0.4445   ZX=     1.9805
   XY=    -0.4211   YY=    30.7111   ZY=    -4.6165
   XZ=     1.9140   YZ=    -4.9812   ZZ=    35.4901
   Eigenvalues:    27.6526    32.4403    39.0458
     21  H    Isotropic =    32.5876   Anisotropy =    14.3417
   XX=    32.3860   YX=     5.0068   ZX=     0.2523
   XY=     4.9341   YY=    38.3514   ZY=     4.1362
   XZ=     0.2401   YZ=     4.3648   ZZ=    27.0252
   Eigenvalues:    25.2825    30.3315    42.1487
     22  H    Isotropic =    33.3651   Anisotropy =     8.0383
   XX=    32.7824   YX=     0.2232   ZX=     1.2053
   XY=     0.7830   YY=    29.1412   ZY=     1.7349
   XZ=     0.6825   YZ=     2.0232   ZZ=    38.1718
   Eigenvalues:    28.7416    32.6297    38.7240
     23  H    Isotropic =    32.1460   Anisotropy =    13.6476
   XX=    34.5542   YX=    -5.5700   ZX=    -1.0201
   XY=    -5.0992   YY=    36.8812   ZY=     0.4231
   XZ=    -1.3316   YZ=     0.3519   ZZ=    25.0027
   Eigenvalues:    24.8528    30.3409    41.2444
     24  H    Isotropic =    35.1178   Anisotropy =    12.9575
   XX=    28.8866   YX=     2.0406   ZX=     3.8870
   XY=     1.7447   YY=    35.3052   ZY=     1.0562
   XZ=     5.2052   YZ=     4.0760   ZZ=    41.1617
   Eigenvalues:    27.2540    34.3434    43.7561
     25  H    Isotropic =    32.3341   Anisotropy =    11.3885
   XX=    33.5239   YX=     3.9842   ZX=     1.3331
   XY=     3.5565   YY=    37.3286   ZY=     1.2703
   XZ=     2.1123   YZ=     1.1845   ZZ=    26.1498
   Eigenvalues:    25.7522    31.3236    39.9264
     26  H    Isotropic =    32.5294   Anisotropy =     9.9774
   XX=    31.9280   YX=    -1.6199   ZX=    -0.1287
   XY=    -1.6075   YY=    38.6066   ZY=     1.7500
   XZ=     0.0319   YZ=     1.4613   ZZ=    27.0536
   Eigenvalues:    26.8287    31.5785    39.1810
     27  H    Isotropic =    32.4947   Anisotropy =    13.4520
   XX=    34.5518   YX=    -0.8116   ZX=    -6.3090
   XY=    -0.9930   YY=    26.9398   ZY=    -0.6967
   XZ=    -5.9821   YZ=    -1.4574   ZZ=    35.9926
   Eigenvalues:    26.2544    29.7671    41.4628
     28  H    Isotropic =    32.4319   Anisotropy =    14.4622
   XX=    39.9889   YX=    -1.8965   ZX=     4.4781
   XY=    -2.2536   YY=    26.8343   ZY=     0.1548
   XZ=     4.7269   YZ=     0.3020   ZZ=    30.4726
   Eigenvalues:    26.2102    29.0123    42.0734
     29  H    Isotropic =    32.8741   Anisotropy =     8.6473
   XX=    31.1851   YX=     3.2473   ZX=     0.6004
   XY=     3.0916   YY=    35.9136   ZY=    -3.2357
   XZ=     0.7090   YZ=    -3.5576   ZZ=    31.5237
   Eigenvalues:    27.9808    32.0026    38.6390
     30  H    Isotropic =    33.2038   Anisotropy =     9.6425
   XX=    34.5687   YX=    -4.9838   ZX=    -1.9432
   XY=    -4.6943   YY=    29.7889   ZY=     2.2965
   XZ=    -2.0575   YZ=     2.5345   ZZ=    35.2537
   Eigenvalues:    26.6544    33.3248    39.6321
     31  H    Isotropic =    32.6758   Anisotropy =    14.7138
   XX=    33.8682   YX=    -0.3974   ZX=     6.2487
   XY=    -0.6181   YY=    26.3682   ZY=    -0.2180
   XZ=     6.4392   YZ=    -0.2599   ZZ=    37.7910
   Eigenvalues:    26.3282    29.2142    42.4850
 End of Minotr Frequency-dependent properties file   721 does not exist.
 End of Minotr Frequency-dependent properties file   722 does not exist.

 **********************************************************************

            Population analysis using the SCF density.

 **********************************************************************

 Orbital symmetries:
       Occupied  (A) (A) (A) (A) (A) (A) (A) (A) (A) (A) (A) (A)
                 (A) (A) (A) (A) (A) (A) (A) (A) (A) (A) (A) (A)
                 (A) (A) (A) (A) (A) (A) (A) (A) (A) (A) (A) (A)
                 (A) (A) (A) (A) (A) (A) (A) (A)
       Virtual   (A) (A) (A) (A) (A) (A) (A) (A) (A) (A) (A) (A)
                 (A) (A) (A) (A) (A) (A) (A) (A) (A) (A) (A) (A)
                 (A) (A) (A) (A) (A) (A) (A)
 The electronic state is 1-A.
 Alpha  occ. eigenvalues --  -20.23947 -11.08541 -11.04904 -11.04879 -11.04074
 Alpha  occ. eigenvalues --  -11.03776 -11.03761 -11.03662 -11.03540 -11.03316
 Alpha  occ. eigenvalues --  -11.03151  -1.27947  -1.08302  -1.03885  -0.97245
 Alpha  occ. eigenvalues --   -0.94961  -0.89606  -0.88181  -0.80054  -0.78326
 Alpha  occ. eigenvalues --   -0.74064  -0.69377  -0.62313  -0.61105  -0.59227
 Alpha  occ. eigenvalues --   -0.57327  -0.56352  -0.54904  -0.53159  -0.52584
 Alpha  occ. eigenvalues --   -0.51889  -0.50472  -0.49253  -0.48707  -0.47218
 Alpha  occ. eigenvalues --   -0.46514  -0.44337  -0.43039  -0.42599  -0.41438
 Alpha  occ. eigenvalues --   -0.40112  -0.38709  -0.36102  -0.32765
 Alpha virt. eigenvalues --    0.53297   0.55574   0.57834   0.58530   0.59818
 Alpha virt. eigenvalues --    0.61377   0.62131   0.62972   0.64642   0.65815
 Alpha virt. eigenvalues --    0.68595   0.69472   0.70610   0.71214   0.72326
 Alpha virt. eigenvalues --    0.72925   0.73531   0.74073   0.74376   0.75813
 Alpha virt. eigenvalues --    0.77198   0.77977   0.79652   0.79855   0.81050
 Alpha virt. eigenvalues --    0.81697   0.83151   0.83344   0.84197   0.84711
 Alpha virt. eigenvalues --    0.85588
          Condensed to atoms (all electrons):
              1          2          3          4          5          6
     1  C    4.739690   0.365847   0.000707   0.000732  -0.000001  -0.024306
     2  C    0.365847   4.741434  -0.019868  -0.022135  -0.002965   0.364700
     3  C    0.000707  -0.019868   4.742372  -0.021154   0.351012  -0.004491
     4  C    0.000732  -0.022135  -0.021154   4.756169   0.358544   0.362996
     5  C   -0.000001  -0.002965   0.351012   0.358544   4.795677  -0.019869
     6  C   -0.024306   0.364700  -0.004491   0.362996  -0.019869   4.757288
     7  C   -0.024437   0.362892   0.358131  -0.003857  -0.022427  -0.023859
     8  O   -0.000001   0.000250   0.270004   0.000206  -0.017373   0.000001
     9  C    0.000000   0.000027  -0.017799  -0.018774   0.357107  -0.000071
    10  C    0.000000   0.000000   0.000563  -0.001900  -0.021528   0.000018
    11  C    0.000001   0.000040  -0.000383  -0.000976  -0.019773  -0.000667
    12  H    0.382378  -0.020310   0.000012  -0.000017   0.000000   0.001293
    13  H    0.382368  -0.020287  -0.000016   0.000013   0.000000  -0.002227
    14  H    0.382225  -0.020706   0.000008   0.000008   0.000001  -0.002227
    15  H   -0.024054   0.382092  -0.001811  -0.001767   0.000070  -0.024192
    16  H    0.000001  -0.001392   0.379644  -0.000289  -0.025805   0.000053
    17  H   -0.000016   0.001250   0.001052   0.382786  -0.020036  -0.021938
    18  H    0.000005  -0.001858  -0.000598   0.381445  -0.022891  -0.024480
    19  H    0.000001   0.000021  -0.025056  -0.024010   0.380867   0.001239
    20  H   -0.002628  -0.022661   0.000071  -0.022393  -0.000938   0.382069
    21  H   -0.002065  -0.021561   0.000032  -0.021862   0.001154   0.382387
    22  H   -0.002703  -0.021365  -0.022535   0.000111  -0.000932  -0.001661
    23  H   -0.002019  -0.020655  -0.021685   0.000017   0.001117   0.001262
    24  H    0.000000   0.000010  -0.041905  -0.000021  -0.001062   0.000005
    25  H    0.000000  -0.000001  -0.002173   0.001065  -0.022985  -0.000015
    26  H    0.000000   0.000000  -0.000005  -0.000758  -0.001131   0.000013
    27  H    0.000000   0.000000   0.000021   0.000033  -0.002670   0.000000
    28  H    0.000000   0.000000  -0.000012   0.000019   0.001132   0.000000
    29  H    0.000001   0.000000   0.000005   0.000108  -0.001218  -0.001101
    30  H    0.000002  -0.000008   0.000139   0.000020  -0.001521  -0.000041
    31  H    0.000000   0.000000  -0.000007  -0.000004   0.001097   0.000013
              7          8          9         10         11         12
     1  C   -0.024437  -0.000001   0.000000   0.000000   0.000001   0.382378
     2  C    0.362892   0.000250   0.000027   0.000000   0.000040  -0.020310
     3  C    0.358131   0.270004  -0.017799   0.000563  -0.000383   0.000012
     4  C   -0.003857   0.000206  -0.018774  -0.001900  -0.000976  -0.000017
     5  C   -0.022427  -0.017373   0.357107  -0.021528  -0.019773   0.000000
     6  C   -0.023859   0.000001  -0.000071   0.000018  -0.000667   0.001293
     7  C    4.785476  -0.018571  -0.000101  -0.000004  -0.000526  -0.002241
     8  O   -0.018571   7.842828  -0.001926   0.000002  -0.000022   0.000000
     9  C   -0.000101  -0.001926   4.745578   0.364255   0.363462   0.000000
    10  C   -0.000004   0.000002   0.364255   4.743883  -0.026960   0.000000
    11  C   -0.000526  -0.000022   0.363462  -0.026960   4.746642   0.000000
    12  H   -0.002241   0.000000   0.000000   0.000000   0.000000   0.629794
    13  H    0.001301   0.000000   0.000000   0.000000   0.000000  -0.021572
    14  H   -0.002252   0.000000   0.000000   0.000000  -0.000001  -0.021706
    15  H   -0.024228   0.000002   0.000000   0.000000  -0.000002  -0.002289
    16  H   -0.026237  -0.020043   0.001031  -0.000013  -0.000014   0.000001
    17  H    0.000000  -0.000004  -0.002981  -0.000903   0.000010   0.000000
    18  H    0.000032   0.000000   0.001160   0.000029  -0.000006   0.000000
    19  H    0.001256  -0.000035  -0.026396  -0.003958   0.001239   0.000000
    20  H   -0.001734  -0.000001   0.000089   0.000013  -0.001263   0.000017
    21  H    0.001279   0.000000  -0.000009   0.000000   0.000010   0.000013
    22  H    0.379828  -0.001387   0.000073  -0.000001  -0.001154  -0.000019
    23  H    0.381697  -0.000498  -0.000010   0.000000   0.000010   0.000251
    24  H   -0.004692   0.257801  -0.000400   0.000000  -0.000266   0.000000
    25  H    0.000047   0.000155   0.381593  -0.025035  -0.025336   0.000000
    26  H    0.000000   0.000000  -0.020159   0.382210  -0.002622   0.000000
    27  H    0.000000   0.000000  -0.019938   0.382284   0.001325   0.000000
    28  H    0.000000   0.000000  -0.019827   0.382571  -0.002040   0.000000
    29  H    0.000024   0.000001  -0.020536  -0.002580   0.383199   0.000000
    30  H   -0.001158  -0.000083  -0.020213   0.001377   0.382944   0.000000
    31  H    0.000008   0.000001  -0.020046  -0.002570   0.381752   0.000000
             13         14         15         16         17         18
     1  C    0.382368   0.382225  -0.024054   0.000001  -0.000016   0.000005
     2  C   -0.020287  -0.020706   0.382092  -0.001392   0.001250  -0.001858
     3  C   -0.000016   0.000008  -0.001811   0.379644   0.001052  -0.000598
     4  C    0.000013   0.000008  -0.001767  -0.000289   0.382786   0.381445
     5  C    0.000000   0.000001   0.000070  -0.025805  -0.020036  -0.022891
     6  C   -0.002227  -0.002227  -0.024192   0.000053  -0.021938  -0.024480
     7  C    0.001301  -0.002252  -0.024228  -0.026237   0.000000   0.000032
     8  O    0.000000   0.000000   0.000002  -0.020043  -0.000004   0.000000
     9  C    0.000000   0.000000   0.000000   0.001031  -0.002981   0.001160
    10  C    0.000000   0.000000   0.000000  -0.000013  -0.000903   0.000029
    11  C    0.000000  -0.000001  -0.000002  -0.000014   0.000010  -0.000006
    12  H   -0.021572  -0.021706  -0.002289   0.000001   0.000000   0.000000
    13  H    0.629748  -0.021680  -0.002281   0.000000  -0.000001   0.000002
    14  H   -0.021680   0.630922   0.001883  -0.000001   0.000000  -0.000001
    15  H   -0.002281   0.001883   0.650029   0.000265   0.000003   0.000345
    16  H    0.000000  -0.000001   0.000265   0.639882  -0.000015   0.000153
    17  H   -0.000001   0.000000   0.000003  -0.000015   0.636431  -0.023663
    18  H    0.000002  -0.000001   0.000345   0.000153  -0.023663   0.649446
    19  H    0.000000   0.000000  -0.000016  -0.005991  -0.000543  -0.005735
    20  H   -0.000009   0.000355   0.001917   0.000003  -0.002746   0.002025
    21  H    0.000238   0.000000  -0.002706  -0.000005  -0.001805  -0.003423
    22  H    0.000020   0.000346   0.001900   0.001921  -0.000009   0.000004
    23  H    0.000013  -0.000003  -0.002776  -0.003707   0.000002  -0.000006
    24  H    0.000000   0.000000   0.000000   0.003694   0.000001  -0.000001
    25  H    0.000000   0.000000   0.000000   0.000019   0.000027  -0.000031
    26  H    0.000000   0.000000   0.000000   0.000000  -0.000657  -0.000010
    27  H    0.000000   0.000000   0.000000  -0.000001   0.000029  -0.000011
    28  H    0.000000   0.000000   0.000000   0.000000  -0.000004   0.000001
    29  H    0.000000   0.000000   0.000000  -0.000001   0.000021  -0.000004
    30  H    0.000000   0.000001   0.000000  -0.000005   0.000010  -0.000003
    31  H    0.000000   0.000000   0.000000   0.000001  -0.000009   0.000001
             19         20         21         22         23         24
     1  C    0.000001  -0.002628  -0.002065  -0.002703  -0.002019   0.000000
     2  C    0.000021  -0.022661  -0.021561  -0.021365  -0.020655   0.000010
     3  C   -0.025056   0.000071   0.000032  -0.022535  -0.021685  -0.041905
     4  C   -0.024010  -0.022393  -0.021862   0.000111   0.000017  -0.000021
     5  C    0.380867  -0.000938   0.001154  -0.000932   0.001117  -0.001062
     6  C    0.001239   0.382069   0.382387  -0.001661   0.001262   0.000005
     7  C    0.001256  -0.001734   0.001279   0.379828   0.381697  -0.004692
     8  O   -0.000035  -0.000001   0.000000  -0.001387  -0.000498   0.257801
     9  C   -0.026396   0.000089  -0.000009   0.000073  -0.000010  -0.000400
    10  C   -0.003958   0.000013   0.000000  -0.000001   0.000000   0.000000
    11  C    0.001239  -0.001263   0.000010  -0.001154   0.000010  -0.000266
    12  H    0.000000   0.000017   0.000013  -0.000019   0.000251   0.000000
    13  H    0.000000  -0.000009   0.000238   0.000020   0.000013   0.000000
    14  H    0.000000   0.000355   0.000000   0.000346  -0.000003   0.000000
    15  H   -0.000016   0.001917  -0.002706   0.001900  -0.002776   0.000000
    16  H   -0.005991   0.000003  -0.000005   0.001921  -0.003707   0.003694
    17  H   -0.000543  -0.002746  -0.001805  -0.000009   0.000002   0.000001
    18  H   -0.005735   0.002025  -0.003423   0.000004  -0.000006  -0.000001
    19  H    0.658435  -0.000011  -0.000032  -0.000014  -0.000032  -0.000009
    20  H   -0.000011   0.643098  -0.023906   0.000254   0.000003   0.000000
    21  H   -0.000032  -0.023906   0.642127   0.000006  -0.000033   0.000000
    22  H   -0.000014   0.000254   0.000006   0.648154  -0.025315   0.000801
    23  H   -0.000032   0.000003  -0.000033  -0.025315   0.636330  -0.000031
    24  H   -0.000009   0.000000   0.000000   0.000801  -0.000031   0.609194
    25  H   -0.002247  -0.000005   0.000001   0.000019  -0.000003  -0.001031
    26  H    0.000029   0.000003   0.000001   0.000000   0.000000   0.000000
    27  H    0.000140   0.000000   0.000000   0.000000   0.000000   0.000000
    28  H    0.000051   0.000000   0.000000   0.000000   0.000000   0.000001
    29  H   -0.000002  -0.000806   0.000025  -0.000003   0.000000  -0.000003
    30  H    0.000008  -0.000126   0.000001  -0.000692   0.000019  -0.000097
    31  H   -0.000034   0.000025   0.000000   0.000018   0.000000   0.000011
             25         26         27         28         29         30
     1  C    0.000000   0.000000   0.000000   0.000000   0.000001   0.000002
     2  C   -0.000001   0.000000   0.000000   0.000000   0.000000  -0.000008
     3  C   -0.002173  -0.000005   0.000021  -0.000012   0.000005   0.000139
     4  C    0.001065  -0.000758   0.000033   0.000019   0.000108   0.000020
     5  C   -0.022985  -0.001131  -0.002670   0.001132  -0.001218  -0.001521
     6  C   -0.000015   0.000013   0.000000   0.000000  -0.001101  -0.000041
     7  C    0.000047   0.000000   0.000000   0.000000   0.000024  -0.001158
     8  O    0.000155   0.000000   0.000000   0.000000   0.000001  -0.000083
     9  C    0.381593  -0.020159  -0.019938  -0.019827  -0.020536  -0.020213
    10  C   -0.025035   0.382210   0.382284   0.382571  -0.002580   0.001377
    11  C   -0.025336  -0.002622   0.001325  -0.002040   0.383199   0.382944
    12  H    0.000000   0.000000   0.000000   0.000000   0.000000   0.000000
    13  H    0.000000   0.000000   0.000000   0.000000   0.000000   0.000000
    14  H    0.000000   0.000000   0.000000   0.000000   0.000000   0.000001
    15  H    0.000000   0.000000   0.000000   0.000000   0.000000   0.000000
    16  H    0.000019   0.000000  -0.000001   0.000000  -0.000001  -0.000005
    17  H    0.000027  -0.000657   0.000029  -0.000004   0.000021   0.000010
    18  H   -0.000031  -0.000010  -0.000011   0.000001  -0.000004  -0.000003
    19  H   -0.002247   0.000029   0.000140   0.000051  -0.000002   0.000008
    20  H   -0.000005   0.000003   0.000000   0.000000  -0.000806  -0.000126
    21  H    0.000001   0.000001   0.000000   0.000000   0.000025   0.000001
    22  H    0.000019   0.000000   0.000000   0.000000  -0.000003  -0.000692
    23  H   -0.000003   0.000000   0.000000   0.000000   0.000000   0.000019
    24  H   -0.001031   0.000000   0.000000   0.000001  -0.000003  -0.000097
    25  H    0.649034   0.001934  -0.001847  -0.003259   0.001965  -0.002029
    26  H    0.001934   0.632159  -0.021602  -0.022296   0.000389   0.000017
    27  H   -0.001847  -0.021602   0.629279  -0.021684   0.000016  -0.000038
    28  H   -0.003259  -0.022296  -0.021684   0.631212  -0.000016   0.000024
    29  H    0.001965   0.000389   0.000016  -0.000016   0.627813  -0.021428
    30  H   -0.002029   0.000017  -0.000038   0.000024  -0.021428   0.637326
    31  H   -0.002949  -0.000030   0.000035   0.000060  -0.022183  -0.022545
             31
     1  C    0.000000
     2  C    0.000000
     3  C   -0.000007
     4  C   -0.000004
     5  C    0.001097
     6  C    0.000013
     7  C    0.000008
     8  O    0.000001
     9  C   -0.020046
    10  C   -0.002570
    11  C    0.381752
    12  H    0.000000
    13  H    0.000000
    14  H    0.000000
    15  H    0.000000
    16  H    0.000001
    17  H   -0.000009
    18  H    0.000001
    19  H   -0.000034
    20  H    0.000025
    21  H    0.000000
    22  H    0.000018
    23  H    0.000000
    24  H    0.000011
    25  H   -0.002949
    26  H   -0.000030
    27  H    0.000035
    28  H    0.000060
    29  H   -0.022183
    30  H   -0.022545
    31  H    0.632040
 Mulliken atomic charges:
              1
     1  C   -0.171726
     2  C   -0.022791
     3  C    0.075726
     4  C   -0.104355
     5  C   -0.042651
     6  C   -0.102191
     7  C   -0.115649
     8  O   -0.311308
     9  C   -0.025190
    10  C   -0.171751
    11  C   -0.178625
    12  H    0.054395
    13  H    0.054369
    14  H    0.052826
    15  H    0.047615
    16  H    0.056851
    17  H    0.053708
    18  H    0.048073
    19  H    0.050834
    20  H    0.049288
    21  H    0.050132
    22  H    0.044334
    23  H    0.056055
    24  H    0.178000
    25  H    0.053087
    26  H    0.052516
    27  H    0.054627
    28  H    0.054067
    29  H    0.056316
    30  H    0.048101
    31  H    0.055317
 Sum of Mulliken atomic charges =   0.00000
 Mulliken charges with hydrogens summed into heavy atoms:
              1
     1  C   -0.010135
     2  C    0.024824
     3  C    0.132577
     4  C   -0.002574
     5  C    0.008183
     6  C   -0.002770
     7  C   -0.015261
     8  O   -0.133308
     9  C    0.027897
    10  C   -0.010541
    11  C   -0.018892
 Sum of Mulliken charges with hydrogens summed into heavy atoms =   0.00000
 Electronic spatial extent (au):  <R**2>=           2009.1873
 Charge=              0.0000 electrons
 Dipole moment (field-independent basis, Debye):
    X=             -0.3060    Y=             -1.2081    Z=              0.6963  Tot=              1.4276
 Quadrupole moment (field-independent basis, Debye-Ang):
   XX=            -67.7631   YY=            -72.8212   ZZ=            -66.1534
   XY=             -1.0757   XZ=              1.4959   YZ=              2.4752
 Traceless Quadrupole moment (field-independent basis, Debye-Ang):
   XX=              1.1494   YY=             -3.9086   ZZ=              2.7592
   XY=             -1.0757   XZ=              1.4959   YZ=              2.4752
 Octapole moment (field-independent basis, Debye-Ang**2):
  XXX=              4.6098  YYY=             -4.9032  ZZZ=             -1.9316  XYY=             -3.2873
  XXY=              6.3455  XXZ=             -0.2263  XZZ=              1.8637  YZZ=              7.8934
  YYZ=              6.5913  XYZ=              1.5981
 Hexadecapole moment (field-independent basis, Debye-Ang**3):
 XXXX=          -1562.5702 YYYY=           -658.1950 ZZZZ=           -376.3878 XXXY=              7.6618
 XXXZ=             13.3558 YYYX=             -1.6767 YYYZ=             17.8368 ZZZX=              0.6912
 ZZZY=             -1.5350 XXYY=           -359.0088 XXZZ=           -319.2330 YYZZ=           -160.4743
 XXYZ=              2.1428 YYXZ=              7.0639 ZZXY=              4.1615
 N-N= 6.990988171003D+02 E-N=-2.469994021803D+03  KE= 4.555630559755D+02
 ******************************Gaussian NBO Version 3.1******************************
             N A T U R A L   A T O M I C   O R B I T A L   A N D
          N A T U R A L   B O N D   O R B I T A L   A N A L Y S I S
 ******************************Gaussian NBO Version 3.1******************************
       /RESON  / : Allow strongly delocalized NBO set
       /NLMO   / : Form Natural Localized Molecular Orbitals
       /NMR /    : Analyze NMR Sheilding Tensor 

 Analyzing the SCF density

 Job title: comment                                                         

 Storage needed:     19864 in NPA,     23691 in NBO,     45933 in NLMO (  33549317 available)


 NATURAL POPULATIONS:  Natural atomic orbital occupancies 
                                                          
   NAO  Atom  No  lang   Type(AO)    Occupancy      Energy
 ----------------------------------------------------------
     1    C    1  S      Cor( 1S)     1.99997     -10.96669
     2    C    1  S      Val( 2S)     1.07958      -0.18308
     3    C    1  px     Val( 2p)     1.00500       0.08426
     4    C    1  py     Val( 2p)     1.02785       0.08225
     5    C    1  pz     Val( 2p)     1.01440       0.08516

     6    C    2  S      Cor( 1S)     1.99997     -10.99098
     7    C    2  S      Val( 2S)     1.07709      -0.19172
     8    C    2  px     Val( 2p)     0.95932       0.10607
     9    C    2  py     Val( 2p)     0.95866       0.10715
    10    C    2  pz     Val( 2p)     0.98918       0.10054

    11    C    3  S      Cor( 1S)     1.99989     -11.03478
    12    C    3  S      Val( 2S)     1.08805      -0.21677
    13    C    3  px     Val( 2p)     0.92588       0.10330
    14    C    3  py     Val( 2p)     0.86353       0.11926
    15    C    3  pz     Val( 2p)     0.98092       0.07957

    16    C    4  S      Cor( 1S)     1.99995     -10.97635
    17    C    4  S      Val( 2S)     1.08408      -0.19033
    18    C    4  px     Val( 2p)     0.98813       0.09668
    19    C    4  py     Val( 2p)     0.99068       0.09730
    20    C    4  pz     Val( 2p)     1.00379       0.08870

    21    C    5  S      Cor( 1S)     1.99995     -10.98695
    22    C    5  S      Val( 2S)     1.10513      -0.21287
    23    C    5  px     Val( 2p)     0.96559       0.10970
    24    C    5  py     Val( 2p)     0.96055       0.10713
    25    C    5  pz     Val( 2p)     0.99065       0.09270

    26    C    6  S      Cor( 1S)     1.99996     -10.97422
    27    C    6  S      Val( 2S)     1.08194      -0.18663
    28    C    6  px     Val( 2p)     0.98346       0.09577
    29    C    6  py     Val( 2p)     0.99156       0.09418
    30    C    6  pz     Val( 2p)     1.00849       0.09481

    31    C    7  S      Cor( 1S)     1.99996     -10.97526
    32    C    7  S      Val( 2S)     1.09112      -0.19740
    33    C    7  px     Val( 2p)     1.00073       0.08218
    34    C    7  py     Val( 2p)     1.00074       0.08701
    35    C    7  pz     Val( 2p)     0.99998       0.09224

    36    O    8  S      Cor( 1S)     1.99999     -20.14285
    37    O    8  S      Val( 2S)     1.74839      -0.99818
    38    O    8  px     Val( 2p)     1.81912      -0.30648
    39    O    8  py     Val( 2p)     1.49507      -0.18096
    40    O    8  pz     Val( 2p)     1.26920      -0.08706

    41    C    9  S      Cor( 1S)     1.99996     -10.99301
    42    C    9  S      Val( 2S)     1.08540      -0.19921
    43    C    9  px     Val( 2p)     0.96142       0.10336
    44    C    9  py     Val( 2p)     0.99142       0.09812
    45    C    9  pz     Val( 2p)     0.94582       0.11565

    46    C   10  S      Cor( 1S)     1.99997     -10.96552
    47    C   10  S      Val( 2S)     1.08188      -0.18381
    48    C   10  px     Val( 2p)     1.00529       0.08461
    49    C   10  py     Val( 2p)     1.01360       0.08740
    50    C   10  pz     Val( 2p)     1.02596       0.08327

    51    C   11  S      Cor( 1S)     1.99997     -10.96831
    52    C   11  S      Val( 2S)     1.07879      -0.18413
    53    C   11  px     Val( 2p)     1.02831       0.07711
    54    C   11  py     Val( 2p)     1.02562       0.08126
    55    C   11  pz     Val( 2p)     1.00230       0.08111

    56    H   12  S      Val( 1S)     0.96295       0.07341

    57    H   13  S      Val( 1S)     0.96295       0.07341

    58    H   14  S      Val( 1S)     0.96442       0.07192

    59    H   15  S      Val( 1S)     0.97634       0.06303

    60    H   16  S      Val( 1S)     0.97829       0.05691

    61    H   17  S      Val( 1S)     0.96760       0.07332

    62    H   18  S      Val( 1S)     0.97254       0.06785

    63    H   19  S      Val( 1S)     0.97459       0.06961

    64    H   20  S      Val( 1S)     0.97187       0.07300

    65    H   21  S      Val( 1S)     0.97012       0.06945

    66    H   22  S      Val( 1S)     0.97554       0.06443

    67    H   23  S      Val( 1S)     0.96441       0.07099

    68    H   24  S      Val( 1S)     0.80979       0.07761

    69    H   25  S      Val( 1S)     0.97258       0.06842

    70    H   26  S      Val( 1S)     0.96524       0.07505

    71    H   27  S      Val( 1S)     0.96311       0.07569

    72    H   28  S      Val( 1S)     0.96335       0.07342

    73    H   29  S      Val( 1S)     0.96092       0.07495

    74    H   30  S      Val( 1S)     0.96879       0.06938

    75    H   31  S      Val( 1S)     0.96138       0.07103


 Summary of Natural Population Analysis:                  
                                                          
                                       Natural Population 
                Natural  -----------------------------------------------
    Atom  No    Charge         Core      Valence    Rydberg      Total
 -----------------------------------------------------------------------
      C    1   -0.12680      1.99997     4.12683    0.00000     6.12680
      C    2    0.01578      1.99997     3.98425    0.00000     5.98422
      C    3    0.14173      1.99989     3.85838    0.00000     5.85827
      C    4   -0.06663      1.99995     4.06668    0.00000     6.06663
      C    5   -0.02188      1.99995     4.02193    0.00000     6.02188
      C    6   -0.06541      1.99996     4.06545    0.00000     6.06541
      C    7   -0.09254      1.99996     4.09257    0.00000     6.09254
      O    8   -0.33177      1.99999     6.33178    0.00000     8.33177
      C    9    0.01599      1.99996     3.98406    0.00000     5.98401
      C   10   -0.12670      1.99997     4.12674    0.00000     6.12670
      C   11   -0.13499      1.99997     4.13503    0.00000     6.13499
      H   12    0.03705      0.00000     0.96295    0.00000     0.96295
      H   13    0.03705      0.00000     0.96295    0.00000     0.96295
      H   14    0.03558      0.00000     0.96442    0.00000     0.96442
      H   15    0.02366      0.00000     0.97634    0.00000     0.97634
      H   16    0.02171      0.00000     0.97829    0.00000     0.97829
      H   17    0.03240      0.00000     0.96760    0.00000     0.96760
      H   18    0.02746      0.00000     0.97254    0.00000     0.97254
      H   19    0.02541      0.00000     0.97459    0.00000     0.97459
      H   20    0.02813      0.00000     0.97187    0.00000     0.97187
      H   21    0.02988      0.00000     0.97012    0.00000     0.97012
      H   22    0.02446      0.00000     0.97554    0.00000     0.97554
      H   23    0.03559      0.00000     0.96441    0.00000     0.96441
      H   24    0.19021      0.00000     0.80979    0.00000     0.80979
      H   25    0.02742      0.00000     0.97258    0.00000     0.97258
      H   26    0.03476      0.00000     0.96524    0.00000     0.96524
      H   27    0.03689      0.00000     0.96311    0.00000     0.96311
      H   28    0.03665      0.00000     0.96335    0.00000     0.96335
      H   29    0.03908      0.00000     0.96092    0.00000     0.96092
      H   30    0.03121      0.00000     0.96879    0.00000     0.96879
      H   31    0.03862      0.00000     0.96138    0.00000     0.96138
 =======================================================================
   * Total *    0.00000     21.99954    66.00046    0.00000    88.00000

                                 Natural Population      
 --------------------------------------------------------
   Core                      21.99954 ( 99.9979% of  22)
   Valence                   66.00046 (100.0007% of  66)
   Natural Minimal Basis     88.00000 (100.0000% of  88)
   Natural Rydberg Basis      0.00000 (  0.0000% of  88)
 --------------------------------------------------------

    Atom  No          Natural Electron Configuration
 ----------------------------------------------------------------------------
      C    1      [core]2S( 1.08)2p( 3.05)
      C    2      [core]2S( 1.08)2p( 2.91)
      C    3      [core]2S( 1.09)2p( 2.77)
      C    4      [core]2S( 1.08)2p( 2.98)
      C    5      [core]2S( 1.11)2p( 2.92)
      C    6      [core]2S( 1.08)2p( 2.98)
      C    7      [core]2S( 1.09)2p( 3.00)
      O    8      [core]2S( 1.75)2p( 4.58)
      C    9      [core]2S( 1.09)2p( 2.90)
      C   10      [core]2S( 1.08)2p( 3.04)
      C   11      [core]2S( 1.08)2p( 3.06)
      H   12            1S( 0.96)
      H   13            1S( 0.96)
      H   14            1S( 0.96)
      H   15            1S( 0.98)
      H   16            1S( 0.98)
      H   17            1S( 0.97)
      H   18            1S( 0.97)
      H   19            1S( 0.97)
      H   20            1S( 0.97)
      H   21            1S( 0.97)
      H   22            1S( 0.98)
      H   23            1S( 0.96)
      H   24            1S( 0.81)
      H   25            1S( 0.97)
      H   26            1S( 0.97)
      H   27            1S( 0.96)
      H   28            1S( 0.96)
      H   29            1S( 0.96)
      H   30            1S( 0.97)
      H   31            1S( 0.96)


 NATURAL BOND ORBITAL ANALYSIS:

                       Occupancies       Lewis Structure    Low   High
           Occ.    -------------------  -----------------   occ   occ
  Cycle   Thresh.   Lewis   Non-Lewis     CR  BD  3C  LP    (L)   (NL)   Dev
 =============================================================================
   1(1)    1.90    87.62729   0.37271     11  31   0   2     0      0    0.02
 -----------------------------------------------------------------------------

 Structure accepted: No low occupancy Lewis orbitals

 --------------------------------------------------------
   Core                     21.99954 ( 99.998% of  22)
   Valence Lewis            65.62776 ( 99.436% of  66)
  ==================       ============================
   Total Lewis              87.62729 ( 99.576% of  88)
  -----------------------------------------------------
   Valence non-Lewis         0.37271 (  0.424% of  88)
   Rydberg non-Lewis         0.00000 (  0.000% of  88)
  ==================       ============================
   Total non-Lewis           0.37271 (  0.424% of  88)
 --------------------------------------------------------


       (Occupancy)   Bond orbital/ Coefficients/ Hybrids
 ---------------------------------------------------------------------------------
     1. (1.98904) BD ( 1) C   1 - C   2  
                ( 50.81%)   0.7128* C   1 s( 25.75%)p 2.88( 74.25%)
                                            0.0001  0.5074  0.6805  0.1676 -0.5014
                ( 49.19%)   0.7014* C   2 s( 25.15%)p 2.98( 74.85%)
                                            0.0000  0.5015 -0.6687 -0.1706  0.5218
     2. (1.99503) BD ( 1) C   1 - H  12  
                ( 51.87%)   0.7202* C   1 s( 24.71%)p 3.05( 75.29%)
                                            0.0000  0.4971 -0.5468  0.6736 -0.0138
                ( 48.13%)   0.6938* H  12 s(100.00%)
                                            1.0000
     3. (1.99500) BD ( 1) C   1 - H  13  
                ( 51.87%)   0.7202* C   1 s( 24.72%)p 3.05( 75.28%)
                                            0.0000  0.4972 -0.4111 -0.7065 -0.2910
                ( 48.13%)   0.6938* H  13 s(100.00%)
                                            1.0000
     4. (1.99544) BD ( 1) C   1 - H  14  
                ( 51.82%)   0.7199* C   1 s( 24.82%)p 3.03( 75.18%)
                                            0.0000  0.4982  0.2627 -0.1377  0.8147
                ( 48.18%)   0.6941* H  14 s(100.00%)
                                            1.0000
     5. (1.98528) BD ( 1) C   2 - C   6  
                ( 49.71%)   0.7050* C   2 s( 25.11%)p 2.98( 74.89%)
                                            0.0000  0.5010  0.5472 -0.6705  0.0004
                ( 50.29%)   0.7092* C   6 s( 25.35%)p 2.95( 74.65%)
                                            0.0001  0.5035 -0.5327  0.6802  0.0076
     6. (1.98366) BD ( 1) C   2 - C   7  
                ( 49.27%)   0.7019* C   2 s( 25.04%)p 2.99( 74.96%)
                                            0.0000  0.5004  0.4110  0.7096  0.2778
                ( 50.73%)   0.7122* C   7 s( 25.67%)p 2.90( 74.33%)
                                            0.0001  0.5066 -0.3959 -0.7176 -0.2675
     7. (1.98491) BD ( 1) C   2 - H  15  
                ( 51.12%)   0.7150* C   2 s( 24.71%)p 3.05( 75.29%)
                                            0.0000  0.4970 -0.2908  0.1336 -0.8066
                ( 48.88%)   0.6991* H  15 s(100.00%)
                                            1.0000
     8. (1.98201) BD ( 1) C   3 - C   5  
                ( 49.95%)   0.7068* C   3 s( 26.07%)p 2.84( 73.93%)
                                            0.0001  0.5106  0.5502 -0.6596 -0.0383
                ( 50.05%)   0.7075* C   5 s( 25.39%)p 2.94( 74.61%)
                                            0.0000  0.5039 -0.5579  0.6387  0.1640
     9. (1.98808) BD ( 1) C   3 - C   7  
                ( 49.33%)   0.7024* C   3 s( 25.75%)p 2.88( 74.25%)
                                            0.0001  0.5075 -0.6711 -0.1961  0.5036
                ( 50.67%)   0.7118* C   7 s( 25.26%)p 2.96( 74.74%)
                                            0.0000  0.5026  0.7033  0.1461 -0.4810
    10. (1.98775) BD ( 1) C   3 - O   8  
                ( 41.14%)   0.6414* C   3 s( 22.72%)p 3.40( 77.28%)
                                            0.0000  0.4766  0.4148  0.6950  0.3431
                ( 58.86%)   0.7672* O   8 s( 16.56%)p 5.04( 83.44%)
                                            0.0000  0.4069 -0.4060 -0.7784 -0.2525
    11. (1.98610) BD ( 1) C   3 - H  16  
                ( 51.17%)   0.7153* C   3 s( 25.46%)p 2.93( 74.54%)
                                           -0.0001  0.5046 -0.2736  0.2083 -0.7919
                ( 48.83%)   0.6988* H  16 s(100.00%)
                                            1.0000
    12. (1.98419) BD ( 1) C   4 - C   5  
                ( 50.39%)   0.7099* C   4 s( 25.66%)p 2.90( 74.34%)
                                            0.0001  0.5065  0.4106  0.7224  0.2302
                ( 49.61%)   0.7043* C   5 s( 25.71%)p 2.89( 74.29%)
                                            0.0000  0.5071 -0.4254 -0.7382 -0.1301
    13. (1.99032) BD ( 1) C   4 - C   6  
                ( 49.98%)   0.7070* C   4 s( 25.38%)p 2.94( 74.62%)
                                            0.0000  0.5037 -0.6814 -0.1300  0.5149
                ( 50.02%)   0.7072* C   6 s( 25.33%)p 2.95( 74.67%)
                                            0.0000  0.5033  0.6955  0.1775 -0.4811
    14. (1.98913) BD ( 1) C   4 - H  17  
                ( 51.62%)   0.7184* C   4 s( 25.11%)p 2.98( 74.89%)
                                            0.0000  0.5011  0.5393 -0.6747  0.0529
                ( 48.38%)   0.6956* H  17 s(100.00%)
                                            1.0000
    15. (1.99001) BD ( 1) C   4 - H  18  
                ( 51.34%)   0.7165* C   4 s( 23.85%)p 3.19( 76.15%)
                                            0.0000  0.4884 -0.2764  0.0772 -0.8241
                ( 48.66%)   0.6976* H  18 s(100.00%)
                                            1.0000
    16. (1.98022) BD ( 1) C   5 - C   9  
                ( 49.95%)   0.7067* C   5 s( 25.72%)p 2.89( 74.28%)
                                            0.0001  0.5071  0.5526 -0.0857  0.6558
                ( 50.05%)   0.7075* C   9 s( 25.62%)p 2.90( 74.38%)
                                            0.0001  0.5062 -0.6443  0.0326 -0.5723
    17. (1.98280) BD ( 1) C   5 - H  19  
                ( 51.09%)   0.7148* C   5 s( 23.18%)p 3.31( 76.82%)
                                            0.0000  0.4815  0.4498  0.1994 -0.7253
                ( 48.91%)   0.6994* H  19 s(100.00%)
                                            1.0000
    18. (1.99021) BD ( 1) C   6 - H  20  
                ( 51.46%)   0.7174* C   6 s( 24.76%)p 3.04( 75.24%)
                                            0.0000  0.4976  0.2476 -0.1835  0.8108
                ( 48.54%)   0.6967* H  20 s(100.00%)
                                            1.0000
    19. (1.98932) BD ( 1) C   6 - H  21  
                ( 51.45%)   0.7173* C   6 s( 24.56%)p 3.07( 75.44%)
                                            0.0000  0.4956 -0.4138 -0.6871 -0.3333
                ( 48.55%)   0.6968* H  21 s(100.00%)
                                            1.0000
    20. (1.98790) BD ( 1) C   7 - H  22  
                ( 51.24%)   0.7158* C   7 s( 24.58%)p 3.07( 75.42%)
                                            0.0000  0.4958  0.2331 -0.0887  0.8318
                ( 48.76%)   0.6983* H  22 s(100.00%)
                                            1.0000
    21. (1.98897) BD ( 1) C   7 - H  23  
                ( 51.74%)   0.7193* C   7 s( 24.49%)p 3.08( 75.51%)
                                            0.0000  0.4949 -0.5424  0.6751 -0.0710
                ( 48.26%)   0.6947* H  23 s(100.00%)
                                            1.0000
    22. (1.98925) BD ( 1) O   8 - H  24  
                ( 59.56%)   0.7718* O   8 s( 16.80%)p 4.95( 83.20%)
                                            0.0000  0.4099  0.1340 -0.1445  0.8906
                ( 40.44%)   0.6359* H  24 s(100.00%)
                                            1.0000
    23. (1.98839) BD ( 1) C   9 - C  10  
                ( 49.10%)   0.7007* C   9 s( 24.78%)p 3.04( 75.22%)
                                           -0.0001  0.4978  0.6097 -0.5509 -0.2774
                ( 50.90%)   0.7134* C  10 s( 25.72%)p 2.89( 74.28%)
                                            0.0001  0.5072 -0.6453  0.5142  0.2489
    24. (1.99073) BD ( 1) C   9 - C  11  
                ( 48.80%)   0.6985* C   9 s( 25.39%)p 2.94( 74.61%)
                                            0.0000  0.5039 -0.2988 -0.2615  0.7671
                ( 51.20%)   0.7156* C  11 s( 25.99%)p 2.85( 74.01%)
                                            0.0001  0.5098  0.2449  0.2428 -0.7881
    25. (1.98322) BD ( 1) C   9 - H  25  
                ( 51.26%)   0.7160* C   9 s( 24.20%)p 3.13( 75.80%)
                                            0.0000  0.4920  0.3520  0.7918  0.0839
                ( 48.74%)   0.6981* H  25 s(100.00%)
                                            1.0000
    26. (1.99493) BD ( 1) C  10 - H  26  
                ( 51.79%)   0.7197* C  10 s( 24.89%)p 3.02( 75.11%)
                                            0.0000  0.4989 -0.2722 -0.8225 -0.0231
                ( 48.21%)   0.6943* H  26 s(100.00%)
                                            1.0000
    27. (1.99510) BD ( 1) C  10 - H  27  
                ( 51.87%)   0.7202* C  10 s( 24.77%)p 3.04( 75.23%)
                                            0.0000  0.4977  0.2728  0.2337 -0.7895
                ( 48.13%)   0.6938* H  27 s(100.00%)
                                            1.0000
    28. (1.99455) BD ( 1) C  10 - H  28  
                ( 51.82%)   0.7199* C  10 s( 24.62%)p 3.06( 75.38%)
                                            0.0000  0.4962  0.6596  0.0670  0.5606
                ( 48.18%)   0.6941* H  28 s(100.00%)
                                            1.0000
    29. (1.99431) BD ( 1) C  11 - H  29  
                ( 52.00%)   0.7211* C  11 s( 24.95%)p 3.01( 75.05%)
                                            0.0000  0.4995 -0.3084 -0.8093 -0.0220
                ( 48.00%)   0.6928* H  29 s(100.00%)
                                            1.0000
    30. (1.99355) BD ( 1) C  11 - H  30  
                ( 51.59%)   0.7183* C  11 s( 24.89%)p 3.02( 75.11%)
                                            0.0000  0.4989 -0.6148  0.5342  0.2963
                ( 48.41%)   0.6958* H  30 s(100.00%)
                                            1.0000
    31. (1.99415) BD ( 1) C  11 - H  31  
                ( 51.92%)   0.7206* C  11 s( 24.17%)p 3.14( 75.83%)
                                            0.0000  0.4916  0.6833  0.0283  0.5391
                ( 48.08%)   0.6934* H  31 s(100.00%)
                                            1.0000
    32. (1.99997) CR ( 1) C   1           s(100.00%)
                                            1.0000  0.0000 -0.0001  0.0000  0.0000
    33. (1.99997) CR ( 1) C   2           s(100.00%)
                                            1.0000  0.0000 -0.0001  0.0000  0.0000
    34. (1.99989) CR ( 1) C   3           s(100.00%)p 0.00(  0.00%)
                                            1.0000  0.0000  0.0000  0.0001 -0.0001
    35. (1.99995) CR ( 1) C   4           s(100.00%)
                                            1.0000  0.0000  0.0000 -0.0001 -0.0001
    36. (1.99995) CR ( 1) C   5           s(100.00%)
                                            1.0000  0.0000  0.0000  0.0000 -0.0001
    37. (1.99996) CR ( 1) C   6           s(100.00%)
                                            1.0000  0.0000  0.0000 -0.0001  0.0000
    38. (1.99996) CR ( 1) C   7           s(100.00%)
                                            1.0000  0.0000  0.0000  0.0001  0.0000
    39. (1.99999) CR ( 1) O   8           s(100.00%)
                                            1.0000  0.0000  0.0000  0.0000  0.0000
    40. (1.99996) CR ( 1) C   9           s(100.00%)
                                            1.0000  0.0000  0.0001  0.0000  0.0000
    41. (1.99997) CR ( 1) C  10           s(100.00%)
                                            1.0000  0.0000  0.0001  0.0000  0.0000
    42. (1.99997) CR ( 1) C  11           s(100.00%)
                                            1.0000  0.0000  0.0000  0.0000  0.0001
    43. (1.99318) LP ( 1) O   8           s( 66.60%)p 0.50( 33.40%)
                                            0.0000  0.8161  0.1561  0.4510 -0.3260
    44. (1.97103) LP ( 2) O   8           s(  0.04%)p99.99( 99.96%)
                                            0.0000  0.0192 -0.8904  0.4122  0.1920
    45. (0.01012) BD*( 1) C   1 - C   2  
                ( 49.19%)   0.7014* C   1 s( 25.75%)p 2.88( 74.25%)
                                           -0.0001 -0.5074 -0.6805 -0.1676  0.5014
                ( 50.81%)  -0.7128* C   2 s( 25.15%)p 2.98( 74.85%)
                                            0.0000 -0.5015  0.6687  0.1706 -0.5218
    46. (0.00512) BD*( 1) C   1 - H  12  
                ( 48.13%)   0.6938* C   1 s( 24.71%)p 3.05( 75.29%)
                                            0.0000 -0.4971  0.5468 -0.6736  0.0138
                ( 51.87%)  -0.7202* H  12 s(100.00%)
                                           -1.0000
    47. (0.00513) BD*( 1) C   1 - H  13  
                ( 48.13%)   0.6938* C   1 s( 24.72%)p 3.05( 75.28%)
                                            0.0000 -0.4972  0.4111  0.7065  0.2910
                ( 51.87%)  -0.7202* H  13 s(100.00%)
                                           -1.0000
    48. (0.00588) BD*( 1) C   1 - H  14  
                ( 48.18%)   0.6941* C   1 s( 24.82%)p 3.03( 75.18%)
                                            0.0000 -0.4982 -0.2627  0.1377 -0.8147
                ( 51.82%)  -0.7199* H  14 s(100.00%)
                                           -1.0000
    49. (0.01592) BD*( 1) C   2 - C   6  
                ( 50.29%)   0.7092* C   2 s( 25.11%)p 2.98( 74.89%)
                                            0.0000  0.5010  0.5472 -0.6705  0.0004
                ( 49.71%)  -0.7050* C   6 s( 25.35%)p 2.95( 74.65%)
                                            0.0001  0.5035 -0.5327  0.6802  0.0076
    50. (0.01533) BD*( 1) C   2 - C   7  
                ( 50.73%)   0.7122* C   2 s( 25.04%)p 2.99( 74.96%)
                                            0.0000  0.5004  0.4110  0.7096  0.2778
                ( 49.27%)  -0.7019* C   7 s( 25.67%)p 2.90( 74.33%)
                                            0.0001  0.5066 -0.3959 -0.7176 -0.2675
    51. (0.01207) BD*( 1) C   2 - H  15  
                ( 48.88%)   0.6991* C   2 s( 24.71%)p 3.05( 75.29%)
                                            0.0000 -0.4970  0.2908 -0.1336  0.8066
                ( 51.12%)  -0.7150* H  15 s(100.00%)
                                           -1.0000
    52. (0.03724) BD*( 1) C   3 - C   5  
                ( 50.05%)   0.7075* C   3 s( 26.07%)p 2.84( 73.93%)
                                            0.0001  0.5106  0.5502 -0.6596 -0.0383
                ( 49.95%)  -0.7068* C   5 s( 25.39%)p 2.94( 74.61%)
                                            0.0000  0.5039 -0.5579  0.6387  0.1640
    53. (0.02706) BD*( 1) C   3 - C   7  
                ( 50.67%)   0.7118* C   3 s( 25.75%)p 2.88( 74.25%)
                                            0.0001  0.5075 -0.6711 -0.1961  0.5036
                ( 49.33%)  -0.7024* C   7 s( 25.26%)p 2.96( 74.74%)
                                            0.0000  0.5026  0.7033  0.1461 -0.4810
    54. (0.02203) BD*( 1) C   3 - O   8  
                ( 58.86%)   0.7672* C   3 s( 22.72%)p 3.40( 77.28%)
                                            0.0000  0.4766  0.4148  0.6950  0.3431
                ( 41.14%)  -0.6414* O   8 s( 16.56%)p 5.04( 83.44%)
                                            0.0000  0.4069 -0.4060 -0.7784 -0.2525
    55. (0.01666) BD*( 1) C   3 - H  16  
                ( 48.83%)   0.6988* C   3 s( 25.46%)p 2.93( 74.54%)
                                            0.0001 -0.5046  0.2736 -0.2083  0.7919
                ( 51.17%)  -0.7153* H  16 s(100.00%)
                                           -1.0000
    56. (0.01721) BD*( 1) C   4 - C   5  
                ( 49.61%)   0.7043* C   4 s( 25.66%)p 2.90( 74.34%)
                                           -0.0001 -0.5065 -0.4106 -0.7224 -0.2302
                ( 50.39%)  -0.7099* C   5 s( 25.71%)p 2.89( 74.29%)
                                            0.0000 -0.5071  0.4254  0.7382  0.1301
    57. (0.01252) BD*( 1) C   4 - C   6  
                ( 50.02%)   0.7072* C   4 s( 25.38%)p 2.94( 74.62%)
                                            0.0000  0.5037 -0.6814 -0.1300  0.5149
                ( 49.98%)  -0.7070* C   6 s( 25.33%)p 2.95( 74.67%)
                                            0.0000  0.5033  0.6955  0.1775 -0.4811
    58. (0.01000) BD*( 1) C   4 - H  17  
                ( 48.38%)   0.6956* C   4 s( 25.11%)p 2.98( 74.89%)
                                            0.0000 -0.5011 -0.5393  0.6747 -0.0529
                ( 51.62%)  -0.7184* H  17 s(100.00%)
                                           -1.0000
    59. (0.00810) BD*( 1) C   4 - H  18  
                ( 48.66%)   0.6976* C   4 s( 23.85%)p 3.19( 76.15%)
                                            0.0000 -0.4884  0.2764 -0.0772  0.8241
                ( 51.34%)  -0.7165* H  18 s(100.00%)
                                           -1.0000
    60. (0.02362) BD*( 1) C   5 - C   9  
                ( 50.05%)   0.7075* C   5 s( 25.72%)p 2.89( 74.28%)
                                            0.0001  0.5071  0.5526 -0.0857  0.6558
                ( 49.95%)  -0.7067* C   9 s( 25.62%)p 2.90( 74.38%)
                                            0.0001  0.5062 -0.6443  0.0326 -0.5723
    61. (0.00930) BD*( 1) C   5 - H  19  
                ( 48.91%)   0.6994* C   5 s( 23.18%)p 3.31( 76.82%)
                                            0.0000 -0.4815 -0.4498 -0.1994  0.7253
                ( 51.09%)  -0.7148* H  19 s(100.00%)
                                           -1.0000
    62. (0.01145) BD*( 1) C   6 - H  20  
                ( 48.54%)   0.6967* C   6 s( 24.76%)p 3.04( 75.24%)
                                            0.0000 -0.4976 -0.2476  0.1835 -0.8108
                ( 51.46%)  -0.7174* H  20 s(100.00%)
                                           -1.0000
    63. (0.00837) BD*( 1) C   6 - H  21  
                ( 48.55%)   0.6968* C   6 s( 24.56%)p 3.07( 75.44%)
                                            0.0000 -0.4956  0.4138  0.6871  0.3333
                ( 51.45%)  -0.7173* H  21 s(100.00%)
                                           -1.0000
    64. (0.01232) BD*( 1) C   7 - H  22  
                ( 48.76%)   0.6983* C   7 s( 24.58%)p 3.07( 75.42%)
                                            0.0000 -0.4958 -0.2331  0.0887 -0.8318
                ( 51.24%)  -0.7158* H  22 s(100.00%)
                                           -1.0000
    65. (0.00888) BD*( 1) C   7 - H  23  
                ( 48.26%)   0.6947* C   7 s( 24.49%)p 3.08( 75.51%)
                                            0.0000 -0.4949  0.5424 -0.6751  0.0710
                ( 51.74%)  -0.7193* H  23 s(100.00%)
                                           -1.0000
    66. (0.00902) BD*( 1) O   8 - H  24  
                ( 40.44%)   0.6359* O   8 s( 16.80%)p 4.95( 83.20%)
                                            0.0000 -0.4099 -0.1340  0.1445 -0.8906
                ( 59.56%)  -0.7718* H  24 s(100.00%)
                                           -1.0000
    67. (0.01016) BD*( 1) C   9 - C  10  
                ( 50.90%)   0.7134* C   9 s( 24.78%)p 3.04( 75.22%)
                                           -0.0001  0.4978  0.6097 -0.5509 -0.2774
                ( 49.10%)  -0.7007* C  10 s( 25.72%)p 2.89( 74.28%)
                                            0.0001  0.5072 -0.6453  0.5142  0.2489
    68. (0.01129) BD*( 1) C   9 - C  11  
                ( 51.20%)   0.7156* C   9 s( 25.39%)p 2.94( 74.61%)
                                            0.0000  0.5039 -0.2988 -0.2615  0.7671
                ( 48.80%)  -0.6985* C  11 s( 25.99%)p 2.85( 74.01%)
                                            0.0001  0.5098  0.2449  0.2428 -0.7881
    69. (0.01174) BD*( 1) C   9 - H  25  
                ( 48.74%)   0.6981* C   9 s( 24.20%)p 3.13( 75.80%)
                                            0.0000 -0.4920 -0.3520 -0.7918 -0.0839
                ( 51.26%)  -0.7160* H  25 s(100.00%)
                                           -1.0000
    70. (0.00676) BD*( 1) C  10 - H  26  
                ( 48.21%)   0.6943* C  10 s( 24.89%)p 3.02( 75.11%)
                                            0.0000 -0.4989  0.2722  0.8225  0.0231
                ( 51.79%)  -0.7197* H  26 s(100.00%)
                                           -1.0000
    71. (0.00541) BD*( 1) C  10 - H  27  
                ( 48.13%)   0.6938* C  10 s( 24.77%)p 3.04( 75.23%)
                                            0.0000 -0.4977 -0.2728 -0.2337  0.7895
                ( 51.87%)  -0.7202* H  27 s(100.00%)
                                           -1.0000
    72. (0.00470) BD*( 1) C  10 - H  28  
[...]
 NLMO      Total    Paramagnetic  Diamagnetic   Paramagnetic  Diamagnetic
    6      -1.2632       -1.5365       0.2733        -1.3061       0.0429
    9      -1.2539       -1.0263      -0.2276        -2.0479       0.7941
   10      20.8283        4.7412      16.0870        10.3269      10.5014
   11       0.9520        0.5603       0.3918        -0.2851       1.2372
   16      -0.1382       -0.2147       0.0766        -1.1567       1.0186
   20      -0.2302       -0.6512       0.4209        -1.1808       0.9505
   22      25.2747       10.4951      14.7797        10.7703      14.5044
   39     271.1800       -0.0067     271.1866        -0.0022     271.1822
   43      32.1884        3.0643      29.1241        -5.2424      37.4308
   44       9.2887      -29.0126      38.3013       -30.5417      39.8305
 Sum      356.8267      -13.5870     370.4137       -20.6659     377.4926

 Contributions to Isotropic shielding for atom    9 (   215.6572 ppm):
                         Standard Origin              Atomic Origin
 NLMO      Total    Paramagnetic  Diamagnetic   Paramagnetic  Diamagnetic
   10      -0.0660       -0.4053       0.3393        -1.1904       1.1244
   16       4.9864       -8.4492      13.4357        -2.8784       7.8648
   17       0.4814        0.1407       0.3407        -0.5618       1.0432
   23      -1.6670       -3.6874       2.0204        -9.2000       7.5330
   24       0.5913       -7.2051       7.7964        -6.8151       7.4064
   25       6.2366       -0.8346       7.0713        -4.7132      10.9498
   26       1.1773       -0.2351       1.4124         0.1692       1.0081
   27       0.7448       -0.5503       1.2951        -0.2814       1.0262
   28       0.6049       -0.4753       1.0802        -0.4178       1.0227
   29       0.7430       -0.2560       0.9990        -0.2949       1.0379
   30       0.5510       -0.5117       1.0627        -0.4595       1.0105
   31       0.5735       -0.0950       0.6685        -0.4490       1.0226
   40     199.9228       -0.0016     199.9245         0.0024     199.9205
 Sum      214.8801      -22.5661     237.4462       -27.0900     241.9701

 Contributions to Isotropic shielding for atom   10 (   220.5789 ppm):
                         Standard Origin              Atomic Origin
 NLMO      Total    Paramagnetic  Diamagnetic   Paramagnetic  Diamagnetic
   17      -0.1812       -0.1351      -0.0461        -1.0975       0.9163
   23       4.7745      -11.8255      16.6000        -3.1975       7.9720
   24      -0.5091        0.0251      -0.5342        -1.2219       0.7128
   25       0.3264        0.2365       0.0898        -0.7266       1.0530
   26       6.1016       -4.3890      10.4906        -5.0256      11.1272
   27       4.7647       -2.8341       7.5987        -6.3717      11.1364
   28       5.0181        1.6530       3.3651        -6.0889      11.1070
   41     200.0740       -0.0043     200.0783         0.0025     200.0715
 Sum      220.3690      -17.2734     237.6424       -23.7272     244.0962

 Contributions to Isotropic shielding for atom   11 (   223.3260 ppm):
                         Standard Origin              Atomic Origin
 NLMO      Total    Paramagnetic  Diamagnetic   Paramagnetic  Diamagnetic
   24       2.9779       -8.6343      11.6122        -5.0853       8.0632
   25       0.3713       -0.1694       0.5407        -0.6404       1.0117
   29       6.8292       -4.3348      11.1640        -4.3477      11.1769
   30       6.9490       -5.7632      12.7123        -4.0693      11.0184
   31       5.8073        2.0756       3.7317        -5.2718      11.0791
   42     200.0805       -0.0014     200.0819         0.0010     200.0795
 Sum      223.0152      -16.8275     239.8427       -19.4136     242.4287

 Contributions to Isotropic shielding for atom   12 (    32.4554 ppm):
                         Standard Origin              Atomic Origin
 NLMO      Total    Paramagnetic  Diamagnetic   Paramagnetic  Diamagnetic
    1       1.3844       -0.3541       1.7384         0.3899       0.9945
    2      26.3347        0.1427      26.1921         0.4350      25.8997
    3       1.9001        2.3631      -0.4630         0.0584       1.8416
    4       1.9667        1.1998       0.7669         0.1268       1.8400
    6      -0.1254        0.5701      -0.6955        -1.0096       0.8842
 Sum       31.4604        3.9215      27.5389         0.0005      31.4600

 Contributions to Isotropic shielding for atom   13 (    32.4660 ppm):
                         Standard Origin              Atomic Origin
 NLMO      Total    Paramagnetic  Diamagnetic   Paramagnetic  Diamagnetic
    1       1.3608       -0.2786       1.6395         0.3631       0.9977
    2       1.9030        2.3430      -0.4400         0.0625       1.8405
    3      26.3407        0.1310      26.2098         0.4408      25.8999
    4       1.9615        1.2619       0.6997         0.1211       1.8404
    5      -0.1283        0.5932      -0.7215        -1.0193       0.8910
 Sum       31.4378        4.0504      27.3874        -0.0317      31.4696

 Contributions to Isotropic shielding for atom   14 (    32.7591 ppm):
                         Standard Origin              Atomic Origin
 NLMO      Total    Paramagnetic  Diamagnetic   Paramagnetic  Diamagnetic
    1       1.6809       -1.3274       3.0084         0.7943       0.8867
    2       1.9671        1.4975       0.4696         0.1405       1.8265
    3       1.9556        1.5791       0.3766         0.1294       1.8262
    4      26.3309        0.3354      25.9955         0.4158      25.9151
 Sum       31.9346        2.0846      29.8500         1.4800      30.4545

 Contributions to Isotropic shielding for atom   15 (    32.7879 ppm):
                         Standard Origin              Atomic Origin
 NLMO      Total    Paramagnetic  Diamagnetic   Paramagnetic  Diamagnetic
    1       0.8079        2.2986      -1.4907        -0.1375       0.9453
    5       1.4185        0.5759       0.8426         0.5557       0.8628
    6       1.4224        0.4901       0.9324         0.5670       0.8554
    7      26.4748       -0.0400      26.5148         0.4260      26.0488
 Sum       30.1236        3.3246      26.7990         1.4112      28.7124

 Contributions to Isotropic shielding for atom   16 (    31.3405 ppm):
                         Standard Origin              Atomic Origin
 NLMO      Total    Paramagnetic  Diamagnetic   Paramagnetic  Diamagnetic
    8       1.0781        0.2444       0.8337        -0.0517       1.1298
    9       0.8043        0.5914       0.2129        -0.2365       1.0409
   10       0.8028        1.2653      -0.4625        -1.2840       2.0868
   11      26.4113        0.2975      26.1138         0.7548      25.6566
   17      -0.0281       -0.2882       0.2600        -1.0806       1.0525
 Sum       29.0684        2.1104      26.9580        -1.8981      30.9665

 Contributions to Isotropic shielding for atom   17 (    32.4225 ppm):
                         Standard Origin              Atomic Origin
 NLMO      Total    Paramagnetic  Diamagnetic   Paramagnetic  Diamagnetic
   12       1.2667        0.4345       0.8323         0.3290       0.9377
   13       1.0988        0.9411       0.1577         0.0557       1.0431
   14      26.3603        0.0639      26.2965         0.4437      25.9166
   15       2.0274        1.7150       0.3124         0.2717       1.7557
   16      -0.1218        0.0165      -0.1383        -1.0634       0.9415
   23      -0.0391       -0.5499       0.5109        -1.0204       0.9813
   26      -0.3437       -1.5659       1.2222        -0.9558       0.6120
 Sum       30.2486        1.0550      29.1936        -1.9394      32.1880

 Contributions to Isotropic shielding for atom   18 (    32.5837 ppm):
                         Standard Origin              Atomic Origin
 NLMO      Total    Paramagnetic  Diamagnetic   Paramagnetic  Diamagnetic
   12       1.3614        0.5550       0.8064         0.2752       1.0862
   13       1.1116        1.0150       0.0966         0.0684       1.0432
   14       2.0497        1.6934       0.3563         0.2272       1.8226
   15      26.4658       -0.0303      26.4961         0.4088      26.0569
   17      -0.0272       -0.2003       0.1731        -1.0385       1.0114
 Sum       30.9612        3.0327      27.9285        -0.0589      31.0202

 Contributions to Isotropic shielding for atom   19 (    32.0734 ppm):
                         Standard Origin              Atomic Origin
 NLMO      Total    Paramagnetic  Diamagnetic   Paramagnetic  Diamagnetic
    8       1.1744        1.1632       0.0112         0.0071       1.1672
   10       0.0645       -0.1552       0.2197        -1.1148       1.1794
   11      -0.0424       -0.5116       0.4693        -1.1892       1.1468
   12       1.1478        1.1933      -0.0455        -0.0263       1.1741
   15       0.0364       -0.4470       0.4834        -1.0957       1.1321
   16       1.0137        1.4555      -0.4418        -0.3168       1.3304
   17      26.4770       -0.2790      26.7560         0.4602      26.0168
   23      -0.0663       -0.2821       0.2158        -1.0729       1.0065
   27      -0.1482       -1.6461       1.4979        -1.0424       0.8942
 Sum       29.6569        0.4909      29.1660        -5.3907      35.0475

 Contributions to Isotropic shielding for atom   20 (    33.0463 ppm):
                         Standard Origin              Atomic Origin
 NLMO      Total    Paramagnetic  Diamagnetic   Paramagnetic  Diamagnetic
    4      -0.0570       -1.2084       1.1514        -0.9558       0.8989
    5       1.3246        0.4724       0.8521         0.4826       0.8419
   13       1.3900       -0.0054       1.3954         0.4697       0.9203
   18      26.4497        0.2314      26.2184         0.4064      26.0434
   19       1.9920        1.6999       0.2921         0.2136       1.7784
   29      -0.4123       -1.1288       0.7164        -0.8764       0.4640
 Sum       30.6870        0.0611      30.6259        -0.2599      30.9469

 Contributions to Isotropic shielding for atom   21 (    32.5875 ppm):
                         Standard Origin              Atomic Origin
 NLMO      Total    Paramagnetic  Diamagnetic   Paramagnetic  Diamagnetic
    3      -0.0850       -1.3450       1.2600        -0.9699       0.8849
    5       1.0079        1.3690      -0.3611         0.0810       0.9270
   13       1.1650        1.0116       0.1534         0.1428       1.0222
   15       0.1855        0.0496       0.1359        -0.8667       1.0522
   18       2.0862        1.2736       0.8126         0.3137       1.7726
   19      26.4652       -0.0437      26.5089         0.4663      25.9989
 Sum       30.8248        2.3150      28.5098        -0.8330      31.6577

 Contributions to Isotropic shielding for atom   22 (    33.3651 ppm):
                         Standard Origin              Atomic Origin
 NLMO      Total    Paramagnetic  Diamagnetic   Paramagnetic  Diamagnetic
    4      -0.0546       -1.2342       1.1796        -0.9536       0.8991
    6       1.2615        0.4913       0.7702         0.4158       0.8458
    9       1.4822        0.1854       1.2967         0.6977       0.7844
   10      -0.0958       -0.1755       0.0796        -1.1797       1.0839
   20      26.5489        0.2361      26.3128         0.4039      26.1450
   21       2.0126        1.5770       0.4355         0.1500       1.8626
 Sum       31.1548        1.0803      30.0745        -0.4660      31.6207

 Contributions to Isotropic shielding for atom   23 (    32.1460 ppm):
                         Standard Origin              Atomic Origin
 NLMO      Total    Paramagnetic  Diamagnetic   Paramagnetic  Diamagnetic
    2      -0.0860       -1.3653       1.2793        -0.9690       0.8830
    6       0.9761        1.2975      -0.3214         0.0300       0.9460
    9       1.1331        0.8525       0.2806         0.1932       0.9398
   10      -0.0703        0.0734      -0.1437        -1.3315       1.2612
   11       0.1055       -0.0886       0.1941        -0.9609       1.0664
   20       2.0013        1.2256       0.7756         0.1604       1.8409
   21      26.2959       -0.0128      26.3088         0.4587      25.8372
 Sum       30.3555        1.9823      28.3733        -2.4191      32.7746

 Contributions to Isotropic shielding for atom   24 (    35.1178 ppm):
                         Standard Origin              Atomic Origin
 NLMO      Total    Paramagnetic  Diamagnetic   Paramagnetic  Diamagnetic
    9      -0.1766        0.1667      -0.3433        -1.1796       1.0029
   10       2.1739        0.8124       1.3616         1.5377       0.6362
   16      -0.0497       -0.1814       0.1317        -1.1367       1.0870
   20      -0.0920       -0.3149       0.2229        -1.0366       0.9446
   22      22.8555       -0.3033      23.1588        -0.2779      23.1334
   43       3.6405        1.9111       1.7295         1.6977       1.9428
   44       5.4419        2.4135       3.0284         2.2601       3.1818
 Sum       33.7935        4.5040      29.2895         1.8648      31.9288

 Contributions to Isotropic shielding for atom   25 (    32.3341 ppm):
                         Standard Origin              Atomic Origin
 NLMO      Total    Paramagnetic  Diamagnetic   Paramagnetic  Diamagnetic
   10       0.0033       -0.3940       0.3974        -1.1150       1.1183
   16       1.5035        0.1916       1.3119         0.4082       1.0953
   22      -0.1570       -0.6194       0.4623        -1.0663       0.9093
   23       0.7884        2.1836      -1.3952        -0.2908       1.0793
   24       1.0749        1.1150      -0.0401         0.0572       1.0177
   25      26.3847       -0.1385      26.5232         0.4143      25.9703
   28       0.2077       -0.7675       0.9752        -0.8011       1.0088
 Sum       29.8055        1.5708      28.2347        -2.3935      32.1989

 Contributions to Isotropic shielding for atom   26 (    32.5294 ppm):
                         Standard Origin              Atomic Origin
 NLMO      Total    Paramagnetic  Diamagnetic   Paramagnetic  Diamagnetic
   12      -0.0989        0.1246      -0.2235        -1.0970       0.9981
   23       1.5571       -1.1949       2.7520         0.6436       0.9135
   24      -0.1515        0.3286      -0.4801        -1.0616       0.9101
   26      26.3587        0.2802      26.0785         0.4157      25.9431
   27       1.9579        1.1341       0.8238         0.1400       1.8179
   28       1.8973        1.8784       0.0189         0.0451       1.8522
 Sum       31.5207        2.5510      28.9697        -0.9142      32.4349

 Contributions to Isotropic shielding for atom   27 (    32.4947 ppm):
                         Standard Origin              Atomic Origin
 NLMO      Total    Paramagnetic  Diamagnetic   Paramagnetic  Diamagnetic
   16      -0.0443        0.3133      -0.3576        -1.0184       0.9740
   23       1.5062       -0.6408       2.1471         0.5040       1.0023
   26       1.9990        1.0342       0.9648         0.1728       1.8262
   27      26.3439        0.2293      26.1147         0.4546      25.8894
   28       1.8966        2.2874      -0.3908         0.0484       1.8482
 Sum       31.7015        3.2234      28.4781         0.1614      31.5401

 Contributions to Isotropic shielding for atom   28 (    32.4320 ppm):
                         Standard Origin              Atomic Origin
 NLMO      Total    Paramagnetic  Diamagnetic   Paramagnetic  Diamagnetic
   23       1.3539        0.0042       1.3497         0.3317       1.0222
   24      -0.1547        0.6720      -0.8267        -1.0990       0.9443
   26       1.9462        1.5734       0.3728         0.0860       1.8602
   27       1.8751        2.0473      -0.1723         0.0177       1.8573
   28      26.3479        0.0377      26.3103         0.4381      25.9098
   31      -0.1279       -0.3395       0.2116        -1.0004       0.8725
 Sum       31.2405        3.9952      27.2454        -1.2259      32.4664

 Contributions to Isotropic shielding for atom   29 (    32.8741 ppm):
                         Standard Origin              Atomic Origin
 NLMO      Total    Paramagnetic  Diamagnetic   Paramagnetic  Diamagnetic
   23      -0.1051       -0.0643      -0.0408        -1.0085       0.9034
   24       1.3791       -0.1523       1.5314         0.4308       0.9483
   29      26.2593        0.2474      26.0119         0.3852      25.8741
   30       2.1627        0.2691       1.8935         0.3933       1.7694
   31       2.0056        1.8330       0.1726         0.1468       1.8588
 Sum       31.7016        2.1330      29.5685         0.3476      31.3539

 Contributions to Isotropic shielding for atom   30 (    33.2038 ppm):
                         Standard Origin              Atomic Origin
 NLMO      Total    Paramagnetic  Diamagnetic   Paramagnetic  Diamagnetic
   24       1.4738       -0.4659       1.9396         0.4513       1.0224
   29       2.1736        0.3527       1.8209         0.3663       1.8073
   30      26.4945        0.3009      26.1937         0.3666      26.1279
   31       2.0155        1.5699       0.4456         0.1338       1.8818
 Sum       32.1574        1.7576      30.3998         1.3181      30.8394

 Contributions to Isotropic shielding for atom   31 (    32.6758 ppm):
                         Standard Origin              Atomic Origin
 NLMO      Total    Paramagnetic  Diamagnetic   Paramagnetic  Diamagnetic
   23      -0.0973        0.3098      -0.4071        -1.1013       1.0040
   24       1.1312        0.9982       0.1330         0.0988       1.0325
   28      -0.1024       -1.1657       1.0633        -0.9907       0.8883
   29       2.0227        1.5051       0.5176         0.1400       1.8828
   30       2.0426        1.2099       0.8327         0.1737       1.8688
   31      26.3069        0.0006      26.3063         0.4136      25.8933
 Sum       31.3037        2.8579      28.4458        -1.2660      32.5697
 
 1\1\GINC-COMPUTE-10-6\SP\RHF\STO-3G\C10H20O1\YTSAI.IQUIR\03-Aug-2021\0
 \\# rhf/STO-3G nmr pop=nbo\\comment\\0,1\C,0,-1.032500681,-0.044356874
 ,-3.202394011\C,0,-1.232805719,-0.256778267,-1.702718753\C,0,-0.457818
 095,-1.566434771,0.322301544\C,0,-1.162699047,0.862689145,0.572630101\
 C,0,-0.333770347,-0.285159225,1.183544313\C,0,-0.999172802,1.046263458
 ,-0.93534986\C,0,-0.309191607,-1.359444156,-1.184921225\O,0,0.43662977
 4,-2.584096988,0.759174457\C,0,1.108964255,0.095317698,1.645964816\C,0
 ,1.079834225,1.12739851,2.784870771\C,0,2.055341275,0.591827307,0.5563
 44022\H,0,-1.229174799,-0.969088193,-3.755042983\H,0,-1.715777985,0.72
 3441649,-3.580329874\H,0,-0.008591532,0.273248697,-3.427141412\H,0,-2.
 272950835,-0.571548621,-1.544414629\H,0,-1.466278164,-1.967258654,0.49
 0753498\H,0,-0.963175054,1.812672953,1.077370278\H,0,-2.222916517,0.64
 6060375,0.764469093\H,0,-0.839070087,-0.543004588,2.128059474\H,0,-0.0
 05446495,1.44216079,-1.165237645\H,0,-1.714870482,1.804879343,-1.27626
 4142\H,0,0.731915788,-1.144333053,-1.446144788\H,0,-0.534857716,-2.305
 131924,-1.69553498\H,0,1.328527725,-2.357242965,0.44628518\H,0,1.56331
 7566,-0.804956554,2.079763419\H,0,0.75303221,2.1124926,2.43866112\H,0,
 0.411751064,0.805897524,3.590580255\H,0,2.079873667,1.247712722,3.2165
 41081\H,0,1.730820032,1.548580975,0.139283857\H,0,2.163249376,-0.13185
 4012,-0.252322389\H,0,3.057811006,0.750045097,0.971219413\\Version=EM6
 4L-G09RevC.01\State=1-A\HF=-459.6129241\RMSD=8.782e-09\Dipole=0.115642
 3,0.4780693,-0.2711515\Quadrupole=2.9561087,-2.8873876,-0.0687211,-0.3
 906834,-0.0397555,1.8056144\PG=C01 [X(C10H20O1)]\\@


 THE PROBLEM WITH THE LADDER OF SUCCESS IS YOU CAN'T
 CLIMB IT WHILE YOU'RE TWIDDLING YOUR THUMBS.
 Job cpu time:  0 days  0 hours  0 minutes 28.0 seconds.
 File lengths (MBytes):  RWF=      5 Int=      0 D2E=      0 Chk=      1 Scr=      1
 Normal termination of Gaussian 09 at Tue Aug  3 16:35:35 2021.
