 Entering Gaussian System, Link 0=g09
 Input=/home/ytsai.iquir/menthol/02_menthol_M0019_MMFF_NMR_rhf_STO-3G_nbo.gjc
 Output=/home/ytsai.iquir/menthol/02_menthol_M0019_MMFF_NMR_rhf_STO-3G_nbo.log
 Initial command:
 /share/apps/Gaussian09/EM64T.SSE4.2-enabled/g09/l1.exe /tmp/Gau-32457.inp -scrdir=/tmp/
 Entering Link 1 = /share/apps/Gaussian09/EM64T.SSE4.2-enabled/g09/l1.exe PID=     32458.
  
 Copyright (c) 1988,1990,1992,1993,1995,1998,2003,2009,2011,
            Gaussian, Inc.  All Rights Reserved.
  
 This is part of the Gaussian(R) 09 program.  It is based on
 the Gaussian(R) 03 system (copyright 2003, Gaussian, Inc.),
 the Gaussian(R) 98 system (copyright 1998, Gaussian, Inc.),
 the Gaussian(R) 94 system (copyright 1995, Gaussian, Inc.),
 the Gaussian 92(TM) system (copyright 1992, Gaussian, Inc.),
 the Gaussian 90(TM) system (copyright 1990, Gaussian, Inc.),
 the Gaussian 88(TM) system (copyright 1988, Gaussian, Inc.),
 the Gaussian 86(TM) system (copyright 1986, Carnegie Mellon
 University), and the Gaussian 82(TM) system (copyright 1983,
 Carnegie Mellon University). Gaussian is a federally registered
 trademark of Gaussian, Inc.
  
 This software contains proprietary and confidential information,
 including trade secrets, belonging to Gaussian, Inc.
  
 This software is provided under written license and may be
 used, copied, transmitted, or stored only in accord with that
 written license.
  
 The following legend is applicable only to US Government
 contracts under FAR:
  
                    RESTRICTED RIGHTS LEGEND
  
 Use, reproduction and disclosure by the US Government is
 subject to restrictions as set forth in subparagraphs (a)
 and (c) of the Commercial Computer Software - Restricted
 Rights clause in FAR 52.227-19.
  
 Gaussian, Inc.
 340 Quinnipiac St., Bldg. 40, Wallingford CT 06492
  
  
 ---------------------------------------------------------------
 Warning -- This program may not be used in any manner that
 competes with the business of Gaussian, Inc. or will provide
 assistance to any competitor of Gaussian, Inc.  The licensee
 of this program is prohibited from giving any competitor of
 Gaussian, Inc. access to this program.  By using this program,
 the user acknowledges that Gaussian, Inc. is engaged in the
 business of creating and licensing software in the field of
 computational chemistry and represents and warrants to the
 licensee that it is not a competitor of Gaussian, Inc. and that
 it will not use this program in any manner prohibited above.
 ---------------------------------------------------------------
  

 Cite this work as:
 Gaussian 09, Revision C.01,
 M. J. Frisch, G. W. Trucks, H. B. Schlegel, G. E. Scuseria, 
 M. A. Robb, J. R. Cheeseman, G. Scalmani, V. Barone, B. Mennucci, 
 G. A. Petersson, H. Nakatsuji, M. Caricato, X. Li, H. P. Hratchian, 
 A. F. Izmaylov, J. Bloino, G. Zheng, J. L. Sonnenberg, M. Hada, 
 M. Ehara, K. Toyota, R. Fukuda, J. Hasegawa, M. Ishida, T. Nakajima, 
 Y. Honda, O. Kitao, H. Nakai, T. Vreven, J. A. Montgomery, Jr., 
 J. E. Peralta, F. Ogliaro, M. Bearpark, J. J. Heyd, E. Brothers, 
 K. N. Kudin, V. N. Staroverov, T. Keith, R. Kobayashi, J. Normand, 
 K. Raghavachari, A. Rendell, J. C. Burant, S. S. Iyengar, J. Tomasi, 
 M. Cossi, N. Rega, J. M. Millam, M. Klene, J. E. Knox, J. B. Cross, 
 V. Bakken, C. Adamo, J. Jaramillo, R. Gomperts, R. E. Stratmann, 
 O. Yazyev, A. J. Austin, R. Cammi, C. Pomelli, J. W. Ochterski, 
 R. L. Martin, K. Morokuma, V. G. Zakrzewski, G. A. Voth, 
 P. Salvador, J. J. Dannenberg, S. Dapprich, A. D. Daniels, 
 O. Farkas, J. B. Foresman, J. V. Ortiz, J. Cioslowski, 
 and D. J. Fox, Gaussian, Inc., Wallingford CT, 2010.
 
 ******************************************
 Gaussian 09:  EM64L-G09RevC.01 23-Sep-2011
                 3-Aug-2021 
 ******************************************
 %nprocshared=4
 Will use up to    4 processors via shared memory.
 ------------------------
 # rhf/STO-3G nmr pop=nbo
 ------------------------
 1/38=1/1;
 2/12=2,17=6,18=5,40=1/2;
 3/6=3,11=1,16=1,25=1,30=1,116=1/1,2,8,3;
 4//1;
 5/5=2,38=5/2;
 8/6=1,10=90,11=11/1;
 10/13=100,45=16/2;
 6/7=2,8=2,9=2,10=2,28=1,64=1/1,7;
 99/9=1/99;
 -------
 comment
 -------
 Charge =  0 Multiplicity = 1
 Symbolic Z-Matrix:
 6                     0.06747   0.45991  -3.0135 
 6                    -1.07787  -0.03897  -2.12852 
 6                     0.18137  -1.34522  -0.28944 
 6                    -0.47615   1.07493   0.09504 
 6                    -0.28179  -0.30282   0.75312 
 6                    -1.46633   0.99994  -1.06866 
 6                    -0.77946  -1.40448  -1.48472 
 8                     1.49722  -1.06571  -0.74707 
 6                     0.62006  -0.26768   2.0233 
 6                    -0.15605   0.29865   3.22137 
 6                     1.93206   0.50906   1.87757 
 1                     0.96391   0.71314  -2.44209 
 1                     0.34088  -0.29641  -3.75672 
 1                    -0.23793   1.36085  -3.557 
 1                    -1.94171  -0.17427  -2.79333 
 1                     0.21247  -2.33384   0.18418 
 1                     0.47878   1.47067  -0.26766 
 1                    -0.85792   1.79411   0.82814 
 1                    -1.2752   -0.64063   1.08499 
 1                    -1.56872   1.99052  -1.52767 
 1                    -2.45569   0.74141  -0.66905 
 1                    -0.38651  -2.08752  -2.24775 
 1                    -1.72978  -1.83136  -1.13791 
 1                     1.74452  -1.76162  -1.37941 
 1                     0.87638  -1.30451   2.27903 
 1                    -0.41976   1.35062   3.07382 
 1                    -1.07976  -0.26461   3.39081 
 1                     0.44263   0.22989   4.13631 
 1                     1.75637   1.57374   1.69353 
 1                     2.55533   0.11907   1.07048 
 1                     2.52117   0.43312   2.7988 
 
                          Input orientation:                          
 ---------------------------------------------------------------------
 Center     Atomic      Atomic             Coordinates (Angstroms)
 Number     Number       Type             X           Y           Z
 ---------------------------------------------------------------------
      1          6           0        0.067472    0.459913   -3.013495
      2          6           0       -1.077867   -0.038966   -2.128516
      3          6           0        0.181370   -1.345218   -0.289444
      4          6           0       -0.476150    1.074932    0.095043
      5          6           0       -0.281791   -0.302816    0.753124
      6          6           0       -1.466329    0.999938   -1.068662
      7          6           0       -0.779460   -1.404478   -1.484721
      8          8           0        1.497215   -1.065708   -0.747065
      9          6           0        0.620061   -0.267683    2.023305
     10          6           0       -0.156046    0.298650    3.221369
     11          6           0        1.932062    0.509062    1.877572
     12          1           0        0.963913    0.713142   -2.442090
     13          1           0        0.340880   -0.296414   -3.756725
     14          1           0       -0.237933    1.360855   -3.556998
     15          1           0       -1.941710   -0.174271   -2.793326
     16          1           0        0.212470   -2.333843    0.184184
     17          1           0        0.478777    1.470672   -0.267660
     18          1           0       -0.857921    1.794112    0.828139
     19          1           0       -1.275203   -0.640630    1.084987
     20          1           0       -1.568722    1.990517   -1.527666
     21          1           0       -2.455691    0.741409   -0.669055
     22          1           0       -0.386510   -2.087515   -2.247751
     23          1           0       -1.729780   -1.831358   -1.137912
     24          1           0        1.744523   -1.761623   -1.379408
     25          1           0        0.876385   -1.304510    2.279027
     26          1           0       -0.419757    1.350619    3.073816
     27          1           0       -1.079764   -0.264607    3.390805
     28          1           0        0.442628    0.229886    4.136313
     29          1           0        1.756370    1.573743    1.693532
     30          1           0        2.555334    0.119072    1.070481
     31          1           0        2.521175    0.433120    2.798796
 ---------------------------------------------------------------------
                    Distance matrix (angstroms):
                    1          2          3          4          5
     1  C    0.000000
     2  C    1.530970   0.000000
     3  C    3.269851   2.583440   0.000000
     4  C    3.215087   2.558721   2.537182   0.000000
     5  C    3.858906   3.001200   1.545338   1.539167   0.000000
     6  C    2.535064   1.534117   2.970160   1.529801   2.533614
     7  C    2.555464   1.538877   1.534729   2.955526   2.543479
     8  O    3.083567   3.097362   1.420912   3.030785   2.448966
     9  C    5.118994   4.491424   2.588887   2.592775   1.558182
    10  C    6.240953   5.439210   3.891267   3.237127   2.543582
    11  C    5.234659   5.040709   3.346526   3.049115   2.612408
    12  H    1.092810   2.198376   3.079465   2.939680   3.576777
    13  H    1.095068   2.174898   3.625944   4.169442   4.552636
    14  H    1.095612   2.169227   4.263280   3.670954   4.620267
    15  H    2.118367   1.098411   3.485400   3.471463   3.917801
    16  H    4.248676   3.504285   1.096663   3.478778   2.166347
    17  H    2.954728   2.857434   2.831636   1.095467   2.183053
    18  H    4.170682   3.485737   3.490632   1.095627   2.175928
    19  H    4.451014   3.275293   2.122996   2.135797   1.100509
    20  H    2.688414   2.172731   3.965243   2.159906   3.481030
    21  H    3.455719   2.153465   3.384111   2.147945   2.799792
    22  H    2.698491   2.165351   2.169899   3.936724   3.493046
    23  H    3.463791   2.149176   2.146795   3.396807   2.830041
    24  H    3.227687   3.390368   1.950606   3.892485   3.283559
    25  H    5.637226   4.984690   2.661155   3.501554   2.161745
    26  H    6.171395   5.424788   4.352058   2.992035   2.852805
    27  H    6.546460   5.523932   4.037625   3.608429   2.756009
    28  H    7.163338   6.452308   4.704948   4.229671   3.500647
    29  H    5.123387   5.024120   3.864343   2.790721   2.925738
    30  H    4.794215   4.843419   3.103103   3.324912   2.885825
    31  H    6.309050   6.119998   4.263145   4.087316   3.547252
                    6          7          8          9         10
     6  C    0.000000
     7  C    2.534978   0.000000
     8  O    3.626694   2.417054   0.000000
     9  C    3.939562   3.944263   3.013502   0.000000
    10  C    4.540156   5.043468   4.510345   1.535719   0.000000
    11  C    4.524413   4.724299   3.091556   1.531639   2.492039
    12  H    2.806177   2.905205   2.514324   4.584757   5.787994
    13  H    3.488870   2.764953   3.314660   5.786839   7.021028
    14  H    2.798398   3.497806   4.098130   5.876059   6.861577
    15  H    2.139911   2.139318   4.099762   5.456311   6.291964
    16  H    3.937269   2.152415   2.031246   2.795982   4.036126
    17  H    2.155605   3.366138   2.774936   2.879298   3.734964
    18  H    2.144464   3.947969   4.025731   2.804256   2.908021
    19  H    2.714074   2.726285   3.350136   2.147453   2.588220
    20  H    1.096547   3.485796   4.398843   4.743378   5.235590
    21  H    1.097889   2.842515   4.347093   4.210381   4.540902
    22  H    3.476870   1.096888   2.616213   4.750463   5.971446
    23  H    2.844370   1.098004   3.339533   4.237939   5.100677
    24  H    4.246452   2.551300   0.972274   3.882619   5.387396
    25  H    4.691035   4.113103   3.098337   1.098228   2.126979
    26  H    4.287006   5.338559   4.910454   2.191734   1.094511
    27  H    4.651382   5.015999   4.940097   2.181621   1.095089
    28  H    5.597220   5.980023   5.161212   2.178041   1.095565
    29  H    4.283078   5.039993   3.604216   2.188789   2.759979
    30  H    4.639573   4.468906   2.413876   2.191514   3.465566
    31  H    5.583790   5.711347   3.983480   2.169504   2.713699
                   11         12         13         14         15
    11  C    0.000000
    12  H    4.431528   0.000000
    13  H    5.909819   1.770774   0.000000
    14  H    5.913458   1.762665   1.766765   0.000000
    15  H    6.106582   3.058352   2.480579   2.417160   0.000000
    16  H    3.729165   4.092199   4.438284   5.277319   4.262606
    17  H    2.763829   2.353158   3.913462   3.368305   3.865694
    18  H    3.246024   3.896405   5.179614   4.449890   4.261941
    19  H    3.498075   4.391652   5.115895   5.160416   3.962706
    20  H    5.103513   2.980285   3.720932   2.507122   2.535217
    21  H    5.078549   3.852030   4.293203   3.693559   2.369636
    22  H    5.397804   3.115299   2.452374   3.691539   2.525233
    23  H    5.289594   3.928274   3.674488   4.274085   2.351860
    24  H    3.974808   2.804123   3.125490   4.292074   4.255252
    25  H    2.136507   5.134932   6.142746   6.511917   5.911672
    26  H    2.769525   5.722424   7.067360   6.633315   6.250200
    27  H    3.458255   6.257417   7.287416   7.184899   6.244565
    28  H    2.719975   6.616695   7.911220   7.805722   7.339504
    29  H    1.094661   4.297905   5.933498   5.620554   6.071511
    30  H    1.091768   3.901756   5.327134   5.545983   5.936200
    31  H    1.096118   5.474519   6.946997   6.990671   7.180397
                   16         17         18         19         20
    16  H    0.000000
    17  H    3.840497   0.000000
    18  H    4.312821   1.758451   0.000000
    19  H    2.427260   3.060015   2.483558   0.000000
    20  H    4.980278   2.459696   2.468528   3.719549   0.000000
    21  H    4.159840   3.050252   2.429535   2.525914   1.756189
    22  H    2.516697   4.162954   4.974973   3.740374   4.306564
    23  H    2.402658   4.066751   4.215392   2.562373   3.845072
    24  H    2.262619   3.644973   4.928411   4.055690   5.007807
    25  H    2.426660   3.787524   3.835929   2.548686   5.597022
    26  H    4.724928   3.462259   2.330610   2.941479   4.785732
    27  H    4.029147   4.338733   3.294662   2.344437   5.432865
    28  H    4.716461   4.575569   3.883587   3.608232   6.263067
    29  H    4.464413   2.342892   2.762605   3.803184   4.648231
    30  H    3.505899   2.815943   3.809830   3.905173   5.221160
    31  H    4.452235   3.827670   4.141748   4.301461   6.153943
                   21         22         23         24         25
    21  H    0.000000
    22  H    3.844035   0.000000
    23  H    2.714020   1.761174   0.000000
    24  H    4.940806   2.324119   3.483385   0.000000
    25  H    4.896906   4.764423   4.329566   3.787712   0.000000
    26  H    4.304096   6.335689   5.438731   5.848193   3.059637
    27  H    4.403147   5.966315   4.835961   5.742176   2.478702
    28  H    5.635022   6.842083   6.065109   6.007014   2.447862
    29  H    4.900617   5.790549   5.636048   4.535169   3.066189
    30  H    5.340754   4.953195   5.200326   3.193178   2.511183
    31  H    6.073732   6.346328   6.220624   4.783041   2.448439
                   26         27         28         29         30
    26  H    0.000000
    27  H    1.773427   0.000000
    28  H    1.768799   1.765781   0.000000
    29  H    2.586600   3.782053   3.082053   0.000000
    30  H    3.792259   4.329555   3.724934   1.772738   0.000000
    31  H    3.092979   3.715381   2.480043   1.762826   1.756948
                   31
    31  H    0.000000
 Stoichiometry    C10H20O
 Framework group  C1[X(C10H20O)]
 Deg. of freedom    87
 Full point group                 C1      NOp   1
 Largest Abelian subgroup         C1      NOp   1
 Largest concise Abelian subgroup C1      NOp   1
                         Standard orientation:                         
 ---------------------------------------------------------------------
 Center     Atomic      Atomic             Coordinates (Angstroms)
 Number     Number       Type             X           Y           Z
 ---------------------------------------------------------------------
      1          6           0       -2.815216    0.163457    1.033507
      2          6           0       -2.273621   -0.560038   -0.202250
      3          6           0       -0.261596    0.919247   -0.863789
      4          6           0        0.092488   -1.133118    0.585251
      5          6           0        0.694196   -0.244900   -0.518403
      6          6           0       -1.282796   -1.666984    0.180440
      7          6           0       -1.659181    0.403543   -1.232842
      8          8           0       -0.360876    1.840420    0.213511
      9          6           0        2.148125    0.227882   -0.217571
     10          6           0        3.148032   -0.912099   -0.460596
     11          6           0        2.379331    0.791603    1.187662
     12          1           0       -2.025159    0.610749    1.641761
     13          1           0       -3.511462    0.957492    0.743813
     14          1           0       -3.362337   -0.537254    1.673842
     15          1           0       -3.138818   -1.039283   -0.680021
     16          1           0        0.144654    1.472473   -1.719108
     17          1           0        0.002443   -0.577781    1.525219
     18          1           0        0.749823   -1.986686    0.784573
     19          1           0        0.748357   -0.860543   -1.428990
     20          1           0       -1.692473   -2.278954    0.992889
     21          1           0       -1.157365   -2.338905   -0.678716
     22          1           0       -2.340515    1.248447   -1.391221
     23          1           0       -1.585233   -0.126613   -2.191527
     24          1           0       -0.952750    2.559459   -0.065745
     25          1           0        2.396656    1.019987   -0.936533
     26          1           0        3.003166   -1.736564    0.244546
     27          1           0        3.048886   -1.309690   -1.476132
     28          1           0        4.177043   -0.553406   -0.347735
     29          1           0        2.221782    0.033366    1.961313
     30          1           0        1.730135    1.642517    1.403177
     31          1           0        3.411610    1.146280    1.288050
 ---------------------------------------------------------------------
 Rotational constants (GHZ):      1.8079840      0.7461437      0.6723577
 Standard basis: STO-3G (5D, 7F)
 There are    75 symmetry adapted basis functions of A   symmetry.
 Integral buffers will be    131072 words long.
 Raffenetti 1 integral format.
 Two-electron integral symmetry is turned on.
    75 basis functions,   225 primitive gaussians,    75 cartesian basis functions
    44 alpha electrons       44 beta electrons
       nuclear repulsion energy       702.8355425426 Hartrees.
 NAtoms=   31 NActive=   31 NUniq=   31 SFac= 1.00D+00 NAtFMM=   60 NAOKFM=F Big=F
 One-electron integrals computed using PRISM.
 NBasis=    75 RedAO= T  NBF=    75
 NBsUse=    75 1.00D-06 NBFU=    75
 Harris functional with IExCor=  205 diagonalized for initial guess.
 ExpMin= 1.69D-01 ExpMax= 1.31D+02 ExpMxC= 1.31D+02 IAcc=1 IRadAn=         1 AccDes= 0.00D+00
 HarFok:  IExCor=  205 AccDes= 0.00D+00 IRadAn=         1 IDoV= 1
 ScaDFX=  1.000000  1.000000  1.000000  1.000000
 FoFCou: FMM=F IPFlag=           0 FMFlag=      100000 FMFlg1=           0
         NFxFlg=           0 DoJE=T BraDBF=F KetDBF=T FulRan=T
         Omega=  0.000000  0.000000  1.000000  0.000000  0.000000 ICntrl=     500 IOpCl=  0
         NMat0=    1 NMatS0=    1 NMatT0=    0 NMatD0=    1 NMtDS0=    0 NMtDT0=    0
         I1Cent=           4 NGrid=           0.
 Petite list used in FoFCou.
 Initial guess orbital symmetries:
       Occupied  (A) (A) (A) (A) (A) (A) (A) (A) (A) (A) (A) (A)
                 (A) (A) (A) (A) (A) (A) (A) (A) (A) (A) (A) (A)
                 (A) (A) (A) (A) (A) (A) (A) (A) (A) (A) (A) (A)
                 (A) (A) (A) (A) (A) (A) (A) (A)
       Virtual   (A) (A) (A) (A) (A) (A) (A) (A) (A) (A) (A) (A)
                 (A) (A) (A) (A) (A) (A) (A) (A) (A) (A) (A) (A)
                 (A) (A) (A) (A) (A) (A) (A)
 The electronic state of the initial guess is 1-A.
 Requested convergence on RMS density matrix=1.00D-08 within 128 cycles.
 Requested convergence on MAX density matrix=1.00D-06.
 Requested convergence on             energy=1.00D-06.
 No special actions if energy rises.
 Keep R1 ints in memory in canonical form, NReq=4898789.
 SCF Done:  E(RHF) =  -459.619070960     A.U. after   10 cycles
             Convg  =    0.7381D-08             -V/T =  2.0090
 Range of M.O.s used for correlation:     1    75
 NBasis=    75 NAE=    44 NBE=    44 NFC=     0 NFV=     0
 NROrb=     75 NOA=    44 NOB=    44 NVA=    31 NVB=    31
          Differentiating once with respect to magnetic field using GIAOs.
          Electric field/nuclear overlap derivatives assumed to be zero.
          Keep R3 ints in memory in canonical form, NReq=4863575.
 FoFCou: FMM=F IPFlag=           0 FMFlag=           0 FMFlg1=           0
         NFxFlg=           0 DoJE=F BraDBF=F KetDBF=T FulRan=T
         Omega=  0.000000  0.000000  1.000000  0.000000  0.000000 ICntrl=    6100 IOpCl=  0
         NMat0=    1 NMatS0=    1 NMatT0=    0 NMatD0=    1 NMtDS0=    0 NMtDT0=    0
         I1Cent=           7 NGrid=          31.
 Symmetry not used in FoFCou.
          There are     3 degrees of freedom in the 1st order CPHF.  IDoFFX=0.
      3 vectors produced by pass  0 Test12= 4.55D-14 3.33D-08 XBig12= 6.68D+00 3.87D-01.
 AX will form     3 AO Fock derivatives at one time.
      3 vectors produced by pass  1 Test12= 4.55D-14 3.33D-08 XBig12= 1.05D-02 1.53D-02.
      3 vectors produced by pass  2 Test12= 4.55D-14 3.33D-08 XBig12= 7.72D-05 2.50D-03.
      3 vectors produced by pass  3 Test12= 4.55D-14 3.33D-08 XBig12= 2.05D-06 3.29D-04.
      3 vectors produced by pass  4 Test12= 4.55D-14 3.33D-08 XBig12= 1.97D-08 3.79D-05.
      3 vectors produced by pass  5 Test12= 4.55D-14 3.33D-08 XBig12= 2.26D-10 2.65D-06.
      3 vectors produced by pass  6 Test12= 4.55D-14 3.33D-08 XBig12= 2.00D-12 2.15D-07.
 Inverted reduced A of dimension    21 with in-core refinement.
 Calculating GIAO nuclear magnetic shielding tensors.
 SCF GIAO Magnetic shielding tensor (ppm):
      1  C    Isotropic =   222.3128   Anisotropy =    24.8151
   XX=   217.3974   YX=    -5.5050   ZX=    -9.9718
   XY=    -8.3551   YY=   220.8759   ZY=     4.3004
   XZ=   -13.2325   YZ=     3.9134   ZZ=   228.6649
   Eigenvalues:   208.7945   219.2877   238.8562
      2  C    Isotropic =   216.4012   Anisotropy =     3.5065
   XX=   215.6314   YX=    -1.7586   ZX=    -3.3370
   XY=    -1.1281   YY=   217.1063   ZY=    -1.7268
   XZ=    -1.9455   YZ=    -1.0553   ZZ=   216.4659
   Eigenvalues:   212.5042   217.9605   218.7389
      3  C    Isotropic =   187.4079   Anisotropy =    31.9152
   XX=   181.5890   YX=    -5.6433   ZX=     0.8891
   XY=    -8.7222   YY=   189.1981   ZY=    17.5377
   XZ=    -4.1781   YZ=    16.3184   ZZ=   191.4367
   Eigenvalues:   171.4801   182.0589   208.6847
      4  C    Isotropic =   221.4971   Anisotropy =    13.1277
   XX=   226.4583   YX=     5.4785   ZX=     0.1468
   XY=     5.4670   YY=   219.8027   ZY=    -6.1037
   XZ=    -0.7398   YZ=    -4.0898   ZZ=   218.2302
   Eigenvalues:   212.9200   221.3223   230.2488
      5  C    Isotropic =   209.0624   Anisotropy =    15.9018
   XX=   218.7319   YX=    -0.9898   ZX=     3.0453
   XY=     4.9804   YY=   205.6295   ZY=     1.6805
   XZ=     3.0120   YZ=     1.8700   ZZ=   202.8257
   Eigenvalues:   201.7353   205.7882   219.6635
      6  C    Isotropic =   216.4540   Anisotropy =    11.5552
   XX=   222.6769   YX=    -2.7415   ZX=     0.0596
   XY=    -2.7838   YY=   218.1085   ZY=    -0.0324
   XZ=     2.0766   YZ=    -3.2590   ZZ=   208.5766
   Eigenvalues:   208.2743   216.9303   224.1574
      7  C    Isotropic =   213.8224   Anisotropy =    10.5204
   XX=   219.2576   YX=     3.1967   ZX=     0.9082
   XY=     2.8114   YY=   214.0544   ZY=    -3.8100
   XZ=    -0.2999   YZ=    -4.6773   ZZ=   208.1552
   Eigenvalues:   205.7233   214.9079   220.8360
      8  O    Isotropic =   357.1940   Anisotropy =    98.8868
   XX=   371.3422   YX=   -42.6050   ZX=    10.7614
   XY=   -34.8277   YY=   377.1080   ZY=   -15.4704
   XZ=    34.1514   YZ=   -29.4209   ZZ=   323.1317
   Eigenvalues:   313.0062   335.4573   423.1185
      9  C    Isotropic =   212.3821   Anisotropy =    17.8086
   XX=   223.8447   YX=     1.9145   ZX=    -0.0208
   XY=     2.5447   YY=   207.1378   ZY=     2.1991
   XZ=     2.3695   YZ=     2.1517   ZZ=   206.1636
   Eigenvalues:   204.4089   208.4829   224.2544
     10  C    Isotropic =   220.2114   Anisotropy =    28.6129
   XX=   225.9515   YX=   -11.9412   ZX=    -4.0315
   XY=   -14.2914   YY=   221.9449   ZY=    10.2880
   XZ=     0.8109   YZ=     8.1806   ZZ=   212.7378
   Eigenvalues:   204.9373   216.4103   239.2867
     11  C    Isotropic =   223.2317   Anisotropy =    21.7151
   XX=   219.5483   YX=     1.9628   ZX=     4.3668
   XY=     0.6377   YY=   218.5374   ZY=     8.5949
   XZ=     2.8770   YZ=    11.1423   ZZ=   231.6094
   Eigenvalues:   213.1805   218.8062   237.7084
     12  H    Isotropic =    32.0391   Anisotropy =     7.2436
   XX=    33.1629   YX=     2.1601   ZX=     0.3488
   XY=     1.7602   YY=    29.1602   ZY=     4.2779
   XZ=     0.6841   YZ=     4.1257   ZZ=    33.7944
   Eigenvalues:    26.3704    32.8789    36.8682
     13  H    Isotropic =    32.7461   Anisotropy =    13.5916
   XX=    35.6484   YX=    -6.6293   ZX=    -1.6887
   XY=    -7.2588   YY=    33.8074   ZY=    -0.6238
   XZ=    -1.5875   YZ=    -0.1401   ZZ=    28.7827
   Eigenvalues:    26.7662    29.6650    41.8072
     14  H    Isotropic =    32.5771   Anisotropy =    14.6724
   XX=    33.2298   YX=     2.6995   ZX=    -7.0116
   XY=     2.6541   YY=    30.4795   ZY=    -3.3506
   XZ=    -7.0818   YZ=    -3.8558   ZZ=    34.0219
   Eigenvalues:    26.4608    28.9117    42.3586
     15  H    Isotropic =    32.4410   Anisotropy =    15.2575
   XX=    37.7268   YX=     5.3315   ZX=     4.4707
   XY=     5.2526   YY=    29.8182   ZY=     2.7315
   XZ=     4.7218   YZ=     2.8176   ZZ=    29.7780
   Eigenvalues:    26.9221    27.7882    42.6127
     16  H    Isotropic =    31.9456   Anisotropy =    10.9023
   XX=    30.8309   YX=     1.4083   ZX=    -1.7954
   XY=     1.2279   YY=    30.5380   ZY=    -5.0549
   XZ=    -3.0217   YZ=    -5.9061   ZZ=    34.4680
   Eigenvalues:    26.6541    29.9690    39.2139
     17  H    Isotropic =    32.3492   Anisotropy =     8.3454
   XX=    31.6422   YX=     1.4390   ZX=     0.2347
   XY=     1.1363   YY=    28.1549   ZY=     2.5353
   XZ=     0.4524   YZ=     2.2666   ZZ=    37.2506
   Eigenvalues:    27.2472    31.8876    37.9128
     18  H    Isotropic =    32.5874   Anisotropy =    13.0471
   XX=    35.3618   YX=    -3.9178   ZX=     1.8195
   XY=    -4.1314   YY=    36.0433   ZY=    -4.9657
   XZ=     1.7544   YZ=    -4.6203   ZZ=    26.3571
   Eigenvalues:    24.3849    32.0919    41.2855
     19  H    Isotropic =    32.8050   Anisotropy =     9.7360
   XX=    33.2958   YX=    -1.1452   ZX=    -0.8163
   XY=    -1.4356   YY=    29.8830   ZY=     5.6418
   XZ=    -1.2700   YZ=     5.8137   ZZ=    35.2362
   Eigenvalues:    26.1969    32.9225    39.2957
     20  H    Isotropic =    32.3972   Anisotropy =    14.3664
   XX=    30.9404   YX=     3.2180   ZX=    -3.2193
   XY=     3.1004   YY=    35.1286   ZY=    -6.5317
   XZ=    -3.3168   YZ=    -6.9240   ZZ=    31.1225
   Eigenvalues:    25.9558    29.2609    41.9748
     21  H    Isotropic =    32.5717   Anisotropy =    13.2453
   XX=    29.3347   YX=     0.0006   ZX=     0.1929
   XY=     0.1883   YY=    37.1314   ZY=     6.4243
   XZ=     0.4219   YZ=     6.7340   ZZ=    31.2489
   Eigenvalues:    26.9654    29.3477    41.4019
     22  H    Isotropic =    32.9010   Anisotropy =    13.2630
   XX=    34.3935   YX=    -4.9844   ZX=     2.6679
   XY=    -5.4386   YY=    34.3618   ZY=    -4.6520
   XZ=     2.8035   YZ=    -4.0729   ZZ=    29.9478
   Eigenvalues:    27.2223    29.7378    41.7430
     23  H    Isotropic =    32.4374   Anisotropy =    13.0498
   XX=    28.9903   YX=     0.8506   ZX=     1.5384
   XY=     0.9735   YY=    28.2401   ZY=     3.1263
   XZ=     1.8972   YZ=     3.0732   ZZ=    40.0817
   Eigenvalues:    27.3175    28.8574    41.1372
     24  H    Isotropic =    35.2449   Anisotropy =    19.0387
   XX=    32.7968   YX=    -8.3906   ZX=     2.1399
   XY=    -7.6384   YY=    43.6635   ZY=     1.0554
   XZ=     2.3668   YZ=    -0.1877   ZZ=    29.2743
   Eigenvalues:    26.6780    31.1193    47.9374
     25  H    Isotropic =    32.3410   Anisotropy =    11.2954
   XX=    32.2429   YX=     2.3764   ZX=    -2.3883
   XY=     2.1943   YY=    33.0644   ZY=    -6.1200
   XZ=    -2.4184   YZ=    -5.9001   ZZ=    31.7158
   Eigenvalues:    26.3280    30.8238    39.8713
     26  H    Isotropic =    32.4307   Anisotropy =    10.0102
   XX=    31.6552   YX=    -2.7818   ZX=    -0.2459
   XY=    -2.7607   YY=    36.1256   ZY=    -4.4788
   XZ=    -0.2834   YZ=    -4.3587   ZZ=    29.5113
   Eigenvalues:    26.8001    31.3878    39.1042
     27  H    Isotropic =    32.5637   Anisotropy =    12.7242
   XX=    31.1168   YX=    -2.6351   ZX=    -2.1932
   XY=    -2.3788   YY=    30.0118   ZY=     6.1578
   XZ=    -2.1473   YZ=     5.6628   ZZ=    36.5623
   Eigenvalues:    26.2594    30.3851    41.0465
     28  H    Isotropic =    32.4057   Anisotropy =    14.5320
   XX=    42.0787   YX=     0.5193   ZX=    -0.4975
   XY=     0.1264   YY=    28.1084   ZY=     1.1869
   XZ=    -0.2330   YZ=     1.4579   ZZ=    27.0299
   Eigenvalues:    26.1264    28.9970    42.0937
     29  H    Isotropic =    32.6404   Anisotropy =     9.6265
   XX=    29.9765   YX=     1.5256   ZX=     1.5396
   XY=     1.4449   YY=    30.3957   ZY=    -3.4664
   XZ=     1.5266   YZ=    -3.5237   ZZ=    37.5491
   Eigenvalues:    27.4323    31.4310    39.0581
     30  H    Isotropic =    31.8760   Anisotropy =    10.5013
   XX=    32.2121   YX=    -3.8536   ZX=     1.2701
   XY=    -3.7415   YY=    34.2891   ZY=     5.3578
   XZ=     1.0914   YZ=     5.6058   ZZ=    29.1267
   Eigenvalues:    24.3938    32.3572    38.8769
     31  H    Isotropic =    32.5738   Anisotropy =    14.8095
   XX=    38.6362   YX=     4.9209   ZX=     3.6221
   XY=     4.8025   YY=    29.6740   ZY=     3.1661
   XZ=     3.7554   YZ=     3.1928   ZZ=    29.4112
   Eigenvalues:    26.2857    28.9888    42.4468
 End of Minotr Frequency-dependent properties file   721 does not exist.
 End of Minotr Frequency-dependent properties file   722 does not exist.

 **********************************************************************

            Population analysis using the SCF density.

 **********************************************************************

 Orbital symmetries:
       Occupied  (A) (A) (A) (A) (A) (A) (A) (A) (A) (A) (A) (A)
                 (A) (A) (A) (A) (A) (A) (A) (A) (A) (A) (A) (A)
                 (A) (A) (A) (A) (A) (A) (A) (A) (A) (A) (A) (A)
                 (A) (A) (A) (A) (A) (A) (A) (A)
       Virtual   (A) (A) (A) (A) (A) (A) (A) (A) (A) (A) (A) (A)
                 (A) (A) (A) (A) (A) (A) (A) (A) (A) (A) (A) (A)
                 (A) (A) (A) (A) (A) (A) (A)
 The electronic state is 1-A.
 Alpha  occ. eigenvalues --  -20.23773 -11.08585 -11.04432 -11.04297 -11.04185
 Alpha  occ. eigenvalues --  -11.03788 -11.03308 -11.03107 -11.02584 -11.02460
 Alpha  occ. eigenvalues --  -11.01822  -1.28068  -1.07638  -1.03221  -0.96128
 Alpha  occ. eigenvalues --   -0.95109  -0.88039  -0.87836  -0.80247  -0.77670
 Alpha  occ. eigenvalues --   -0.72267  -0.68290  -0.63261  -0.59656  -0.58429
 Alpha  occ. eigenvalues --   -0.57632  -0.56928  -0.54027  -0.52991  -0.51785
 Alpha  occ. eigenvalues --   -0.51039  -0.50442  -0.49127  -0.48062  -0.45797
 Alpha  occ. eigenvalues --   -0.44744  -0.43701  -0.42302  -0.42091  -0.40564
 Alpha  occ. eigenvalues --   -0.39722  -0.38654  -0.35909  -0.32823
 Alpha virt. eigenvalues --    0.52963   0.55672   0.58578   0.60381   0.60593
 Alpha virt. eigenvalues --    0.61876   0.62662   0.65429   0.66432   0.67009
 Alpha virt. eigenvalues --    0.68842   0.70223   0.70515   0.71389   0.72554
 Alpha virt. eigenvalues --    0.73276   0.73434   0.75105   0.76838   0.77034
 Alpha virt. eigenvalues --    0.77537   0.78358   0.79050   0.79405   0.80693
 Alpha virt. eigenvalues --    0.81710   0.82363   0.83166   0.83837   0.84073
 Alpha virt. eigenvalues --    0.85299
          Condensed to atoms (all electrons):
              1          2          3          4          5          6
     1  C    4.745692   0.364379  -0.000428  -0.001249   0.000061  -0.023776
     2  C    0.364379   4.742449  -0.019524  -0.020971  -0.003645   0.362865
     3  C   -0.000428  -0.019524   4.741191  -0.022549   0.357436  -0.003764
     4  C   -0.001249  -0.020971  -0.022549   4.753023   0.361844   0.363117
     5  C    0.000061  -0.003645   0.357436   0.361844   4.770741  -0.021882
     6  C   -0.023776   0.362865  -0.003764   0.363117  -0.021882   4.754503
     7  C   -0.023036   0.361255   0.357149  -0.004083  -0.022306  -0.023014
     8  O   -0.000835  -0.000110   0.267658  -0.000486  -0.016258   0.000056
     9  C    0.000000   0.000002  -0.020189  -0.019599   0.358997   0.000611
    10  C    0.000000   0.000000   0.000659  -0.000975  -0.023175   0.000002
    11  C    0.000000   0.000000  -0.000161  -0.003017  -0.019113   0.000013
    12  H    0.382790  -0.019498   0.000016  -0.000359   0.000025  -0.001988
    13  H    0.382044  -0.020413   0.000018   0.000001  -0.000002   0.001252
    14  H    0.381813  -0.020432  -0.000010   0.000029  -0.000001  -0.001948
    15  H   -0.025871   0.382956   0.001176   0.001224   0.000017  -0.023408
    16  H   -0.000012   0.001146   0.375752   0.001169  -0.023780   0.000018
    17  H   -0.000389  -0.001400  -0.001866   0.382450  -0.021431  -0.022570
    18  H    0.000007   0.001218   0.001206   0.382799  -0.020898  -0.022143
    19  H    0.000001   0.000088  -0.023901  -0.024493   0.379827  -0.002508
    20  H   -0.003303  -0.021147   0.000004  -0.021553   0.001220   0.382693
    21  H    0.001316  -0.022808   0.000040  -0.023561  -0.002016   0.380995
    22  H   -0.003392  -0.021964  -0.021809   0.000001   0.001093   0.001195
    23  H    0.001291  -0.022266  -0.021363   0.000061  -0.001092  -0.000998
    24  H    0.000014   0.000010  -0.041217   0.000008   0.002413  -0.000004
    25  H    0.000000   0.000000  -0.003769   0.001066  -0.023418  -0.000014
    26  H    0.000000   0.000000  -0.000002  -0.000447  -0.001494  -0.000005
    27  H    0.000000   0.000000   0.000028   0.000043  -0.002650  -0.000002
    28  H    0.000000   0.000000  -0.000014   0.000002   0.001193   0.000000
    29  H    0.000000   0.000000   0.000007  -0.000765  -0.001404   0.000005
    30  H    0.000000   0.000000  -0.000075  -0.000068  -0.001424  -0.000002
    31  H    0.000000   0.000000  -0.000008   0.000034   0.001084   0.000000
              7          8          9         10         11         12
     1  C   -0.023036  -0.000835   0.000000   0.000000   0.000000   0.382790
     2  C    0.361255  -0.000110   0.000002   0.000000   0.000000  -0.019498
     3  C    0.357149   0.267658  -0.020189   0.000659  -0.000161   0.000016
     4  C   -0.004083  -0.000486  -0.019599  -0.000975  -0.003017  -0.000359
     5  C   -0.022306  -0.016258   0.358997  -0.023175  -0.019113   0.000025
     6  C   -0.023014   0.000056   0.000611   0.000002   0.000013  -0.001988
     7  C    4.784407  -0.019808   0.000587  -0.000005  -0.000006  -0.001171
     8  O   -0.019808   7.848296  -0.000259  -0.000001  -0.001079   0.000294
     9  C    0.000587  -0.000259   4.735330   0.363812   0.364841   0.000001
    10  C   -0.000005  -0.000001   0.363812   4.746216  -0.027024   0.000000
    11  C   -0.000006  -0.001079   0.364841  -0.027024   4.743681   0.000000
    12  H   -0.001171   0.000294   0.000001   0.000000   0.000000   0.616227
    13  H   -0.002612   0.000010   0.000000   0.000000   0.000000  -0.021631
    14  H    0.001229   0.000012   0.000000   0.000000   0.000000  -0.022037
    15  H   -0.023749  -0.000010   0.000001   0.000000   0.000000   0.001932
    16  H   -0.026500  -0.020030  -0.002228   0.000017   0.000018   0.000002
    17  H    0.000096   0.000210  -0.001523   0.000039  -0.000763  -0.000464
    18  H    0.000013  -0.000003  -0.001681  -0.000466  -0.000081  -0.000006
    19  H   -0.001982   0.000550  -0.023311  -0.004742   0.001093  -0.000001
    20  H    0.001189  -0.000001  -0.000013   0.000000   0.000000   0.000005
    21  H   -0.001067   0.000000   0.000005   0.000002  -0.000001   0.000004
    22  H    0.380891  -0.001587  -0.000013   0.000000   0.000000   0.000017
    23  H    0.379181   0.000637   0.000006   0.000000   0.000000  -0.000008
    24  H   -0.003266   0.258925   0.000002   0.000000   0.000058  -0.000226
    25  H    0.000027   0.000083   0.381264  -0.024778  -0.024313   0.000000
    26  H    0.000000   0.000000  -0.020203   0.382210  -0.002333   0.000000
    27  H   -0.000001   0.000000  -0.020172   0.381974   0.001331   0.000000
    28  H    0.000000   0.000000  -0.019731   0.382445  -0.002355   0.000000
    29  H    0.000000   0.000018  -0.020410  -0.002444   0.382337   0.000000
    30  H    0.000000   0.000722  -0.019047   0.001332   0.382795   0.000001
    31  H    0.000000   0.000013  -0.020194  -0.002676   0.381509   0.000000
             13         14         15         16         17         18
     1  C    0.382044   0.381813  -0.025871  -0.000012  -0.000389   0.000007
     2  C   -0.020413  -0.020432   0.382956   0.001146  -0.001400   0.001218
     3  C    0.000018  -0.000010   0.001176   0.375752  -0.001866   0.001206
     4  C    0.000001   0.000029   0.001224   0.001169   0.382450   0.382799
     5  C   -0.000002  -0.000001   0.000017  -0.023780  -0.021431  -0.020898
     6  C    0.001252  -0.001948  -0.023408   0.000018  -0.022570  -0.022143
     7  C   -0.002612   0.001229  -0.023749  -0.026500   0.000096   0.000013
     8  O    0.000010   0.000012  -0.000010  -0.020030   0.000210  -0.000003
     9  C    0.000000   0.000000   0.000001  -0.002228  -0.001523  -0.001681
    10  C    0.000000   0.000000   0.000000   0.000017   0.000039  -0.000466
    11  C    0.000000   0.000000   0.000000   0.000018  -0.000763  -0.000081
    12  H   -0.021631  -0.022037   0.001932   0.000002  -0.000464  -0.000006
    13  H    0.636088  -0.021745  -0.002043  -0.000003  -0.000006   0.000001
    14  H   -0.021745   0.634660  -0.003176   0.000001   0.000041  -0.000003
    15  H   -0.002043  -0.003176   0.654411  -0.000032  -0.000006  -0.000031
    16  H   -0.000003   0.000001  -0.000032   0.665670   0.000005  -0.000030
    17  H   -0.000006   0.000041  -0.000006   0.000005   0.632146  -0.023501
    18  H    0.000001  -0.000003  -0.000031  -0.000030  -0.023501   0.641224
    19  H    0.000000   0.000000  -0.000020  -0.002338   0.001897  -0.002318
    20  H    0.000040   0.000167  -0.001149   0.000002  -0.002608  -0.001972
    21  H   -0.000036   0.000025  -0.003928  -0.000009   0.001966  -0.002977
    22  H    0.000222   0.000042  -0.001108  -0.001539  -0.000009   0.000002
    23  H    0.000034  -0.000036  -0.004275  -0.002767   0.000002  -0.000006
    24  H   -0.000033   0.000000  -0.000005  -0.003488  -0.000035   0.000002
    25  H    0.000000   0.000000   0.000000   0.000295   0.000001   0.000006
    26  H    0.000000   0.000000   0.000000   0.000000   0.000029  -0.000380
    27  H    0.000000   0.000000   0.000000   0.000006  -0.000001   0.000034
    28  H    0.000000   0.000000   0.000000  -0.000001  -0.000002  -0.000005
    29  H    0.000000   0.000000   0.000000  -0.000001  -0.000890  -0.000059
    30  H    0.000000   0.000000   0.000000   0.000023  -0.000050   0.000015
    31  H    0.000000   0.000000   0.000000  -0.000002   0.000011  -0.000006
             19         20         21         22         23         24
     1  C    0.000001  -0.003303   0.001316  -0.003392   0.001291   0.000014
     2  C    0.000088  -0.021147  -0.022808  -0.021964  -0.022266   0.000010
     3  C   -0.023901   0.000004   0.000040  -0.021809  -0.021363  -0.041217
     4  C   -0.024493  -0.021553  -0.023561   0.000001   0.000061   0.000008
     5  C    0.379827   0.001220  -0.002016   0.001093  -0.001092   0.002413
     6  C   -0.002508   0.382693   0.380995   0.001195  -0.000998  -0.000004
     7  C   -0.001982   0.001189  -0.001067   0.380891   0.379181  -0.003266
     8  O    0.000550  -0.000001   0.000000  -0.001587   0.000637   0.258925
     9  C   -0.023311  -0.000013   0.000005  -0.000013   0.000006   0.000002
    10  C   -0.004742   0.000000   0.000002   0.000000   0.000000   0.000000
    11  C    0.001093   0.000000  -0.000001   0.000000   0.000000   0.000058
    12  H   -0.000001   0.000005   0.000004   0.000017  -0.000008  -0.000226
    13  H    0.000000   0.000040  -0.000036   0.000222   0.000034  -0.000033
    14  H    0.000000   0.000167   0.000025   0.000042  -0.000036   0.000000
    15  H   -0.000020  -0.001149  -0.003928  -0.001108  -0.004275  -0.000005
    16  H   -0.002338   0.000002  -0.000009  -0.001539  -0.002767  -0.003488
    17  H    0.001897  -0.002608   0.001966  -0.000009   0.000002  -0.000035
    18  H   -0.002318  -0.001972  -0.002977   0.000002  -0.000006   0.000002
    19  H    0.656122   0.000016   0.000357   0.000025  -0.000085  -0.000075
    20  H    0.000016   0.639417  -0.023500  -0.000033  -0.000001   0.000000
    21  H    0.000357  -0.023500   0.650350  -0.000001   0.000201   0.000000
    22  H    0.000025  -0.000033  -0.000001   0.644352  -0.022323   0.000600
    23  H   -0.000085  -0.000001   0.000201  -0.022323   0.643685   0.000002
    24  H   -0.000075   0.000000   0.000000   0.000600   0.000002   0.608162
    25  H   -0.000754   0.000000  -0.000001  -0.000001   0.000001  -0.000028
    26  H    0.000033   0.000001   0.000001   0.000000   0.000000   0.000000
    27  H    0.000034   0.000000   0.000000   0.000000   0.000000   0.000000
    28  H    0.000065   0.000000   0.000000   0.000000   0.000000   0.000000
    29  H   -0.000001   0.000001  -0.000001   0.000000   0.000000  -0.000002
    30  H    0.000002   0.000000   0.000000   0.000000   0.000000  -0.000020
    31  H   -0.000029   0.000000   0.000000   0.000000   0.000000  -0.000001
             25         26         27         28         29         30
     1  C    0.000000   0.000000   0.000000   0.000000   0.000000   0.000000
     2  C    0.000000   0.000000   0.000000   0.000000   0.000000   0.000000
     3  C   -0.003769  -0.000002   0.000028  -0.000014   0.000007  -0.000075
     4  C    0.001066  -0.000447   0.000043   0.000002  -0.000765  -0.000068
     5  C   -0.023418  -0.001494  -0.002650   0.001193  -0.001404  -0.001424
     6  C   -0.000014  -0.000005  -0.000002   0.000000   0.000005  -0.000002
     7  C    0.000027   0.000000  -0.000001   0.000000   0.000000   0.000000
     8  O    0.000083   0.000000   0.000000   0.000000   0.000018   0.000722
     9  C    0.381264  -0.020203  -0.020172  -0.019731  -0.020410  -0.019047
    10  C   -0.024778   0.382210   0.381974   0.382445  -0.002444   0.001332
    11  C   -0.024313  -0.002333   0.001331  -0.002355   0.382337   0.382795
    12  H    0.000000   0.000000   0.000000   0.000000   0.000000   0.000001
    13  H    0.000000   0.000000   0.000000   0.000000   0.000000   0.000000
    14  H    0.000000   0.000000   0.000000   0.000000   0.000000   0.000000
    15  H    0.000000   0.000000   0.000000   0.000000   0.000000   0.000000
    16  H    0.000295   0.000000   0.000006  -0.000001  -0.000001   0.000023
    17  H    0.000001   0.000029  -0.000001  -0.000002  -0.000890  -0.000050
    18  H    0.000006  -0.000380   0.000034  -0.000005  -0.000059   0.000015
    19  H   -0.000754   0.000033   0.000034   0.000065  -0.000001   0.000002
    20  H    0.000000   0.000001   0.000000   0.000000   0.000001   0.000000
    21  H   -0.000001   0.000001   0.000000   0.000000  -0.000001   0.000000
    22  H   -0.000001   0.000000   0.000000   0.000000   0.000000   0.000000
    23  H    0.000001   0.000000   0.000000   0.000000   0.000000   0.000000
    24  H   -0.000028   0.000000   0.000000   0.000000  -0.000002  -0.000020
    25  H    0.653382   0.001917  -0.002164  -0.002653   0.001889  -0.001995
    26  H    0.001917   0.631739  -0.021853  -0.021907   0.000335   0.000012
    27  H   -0.002164  -0.021853   0.635667  -0.021965   0.000015  -0.000037
    28  H   -0.002653  -0.021907  -0.021965   0.631781  -0.000011   0.000030
    29  H    0.001889   0.000335   0.000015  -0.000011   0.633209  -0.021279
    30  H   -0.001995   0.000012  -0.000037   0.000030  -0.021279   0.610150
    31  H   -0.002613  -0.000004   0.000035   0.000029  -0.022311  -0.021983
             31
     1  C    0.000000
     2  C    0.000000
     3  C   -0.000008
     4  C    0.000034
     5  C    0.001084
     6  C    0.000000
     7  C    0.000000
     8  O    0.000013
     9  C   -0.020194
    10  C   -0.002676
    11  C    0.381509
    12  H    0.000000
    13  H    0.000000
    14  H    0.000000
    15  H    0.000000
    16  H   -0.000002
    17  H    0.000011
    18  H   -0.000006
    19  H   -0.000029
    20  H    0.000000
    21  H    0.000000
    22  H    0.000000
    23  H    0.000000
    24  H   -0.000001
    25  H   -0.002613
    26  H   -0.000004
    27  H    0.000035
    28  H    0.000029
    29  H   -0.022311
    30  H   -0.021983
    31  H    0.637251
 Mulliken atomic charges:
              1
     1  C   -0.177116
     2  C   -0.022190
     3  C    0.078307
     4  C   -0.102697
     5  C   -0.029964
     6  C   -0.099301
     7  C   -0.113417
     8  O   -0.317017
     9  C   -0.016886
    10  C   -0.172423
    11  C   -0.177433
    12  H    0.066076
    13  H    0.048814
    14  H    0.051370
    15  H    0.047094
    16  H    0.038634
    17  H    0.058621
    18  H    0.050040
    19  H    0.046446
    20  H    0.050522
    21  H    0.044642
    22  H    0.045340
    23  H    0.050116
    24  H    0.178204
    25  H    0.046570
    26  H    0.052352
    27  H    0.049677
    28  H    0.053099
    29  H    0.051761
    30  H    0.070899
    31  H    0.049860
 Sum of Mulliken atomic charges =   0.00000
 Mulliken charges with hydrogens summed into heavy atoms:
              1
     1  C   -0.010856
     2  C    0.024905
     3  C    0.116941
     4  C    0.005964
     5  C    0.016483
     6  C   -0.004137
     7  C   -0.017961
     8  O   -0.138813
     9  C    0.029684
    10  C   -0.017295
    11  C   -0.004914
 Sum of Mulliken charges with hydrogens summed into heavy atoms =   0.00000
 Electronic spatial extent (au):  <R**2>=           2002.5307
 Charge=              0.0000 electrons
 Dipole moment (field-independent basis, Debye):
    X=             -0.6621    Y=              0.0855    Z=             -1.1526  Tot=              1.3319
 Quadrupole moment (field-independent basis, Debye-Ang):
   XX=            -67.4768   YY=            -65.9027   ZZ=            -67.4971
   XY=             -1.7078   XZ=              0.4649   YZ=             -2.0576
 Traceless Quadrupole moment (field-independent basis, Debye-Ang):
   XX=             -0.5179   YY=              1.0562   ZZ=             -0.5382
   XY=             -1.7078   XZ=              0.4649   YZ=             -2.0576
 Octapole moment (field-independent basis, Debye-Ang**2):
  XXX=             -2.7788  YYY=             19.6041  ZZZ=              0.2310  XYY=             -7.2649
  XXY=              7.6766  XXZ=             -0.1572  XZZ=             -0.7360  YZZ=              1.9742
  YYZ=             -2.8997  XYZ=              0.6781
 Hexadecapole moment (field-independent basis, Debye-Ang**3):
 XXXX=          -1678.5555 YYYY=           -492.6561 ZZZZ=           -370.9672 XXXY=              3.0087
 XXXZ=              4.6082 YYYX=            -22.3928 YYYZ=             -5.7851 ZZZX=             -3.3029
 ZZZY=              2.5432 XXYY=           -359.4986 XXZZ=           -346.2526 YYZZ=           -145.9769
 XXYZ=             -4.3913 YYXZ=              1.9437 ZZXY=              0.0981
 N-N= 7.028355425426D+02 E-N=-2.477898829783D+03  KE= 4.555203818371D+02
 ******************************Gaussian NBO Version 3.1******************************
             N A T U R A L   A T O M I C   O R B I T A L   A N D
          N A T U R A L   B O N D   O R B I T A L   A N A L Y S I S
 ******************************Gaussian NBO Version 3.1******************************
       /RESON  / : Allow strongly delocalized NBO set
       /NLMO   / : Form Natural Localized Molecular Orbitals
       /NMR /    : Analyze NMR Sheilding Tensor 

 Analyzing the SCF density

 Job title: comment                                                         

 Storage needed:     19864 in NPA,     23691 in NBO,     45933 in NLMO (  33549317 available)


 NATURAL POPULATIONS:  Natural atomic orbital occupancies 
                                                          
   NAO  Atom  No  lang   Type(AO)    Occupancy      Energy
 ----------------------------------------------------------
     1    C    1  S      Cor( 1S)     1.99997     -10.95816
     2    C    1  S      Val( 2S)     1.08035      -0.17595
     3    C    1  px     Val( 2p)     1.02689       0.08786
     4    C    1  py     Val( 2p)     1.01975       0.09128
     5    C    1  pz     Val( 2p)     1.00598       0.09316

     6    C    2  S      Cor( 1S)     1.99997     -10.98740
     7    C    2  S      Val( 2S)     1.08038      -0.19050
     8    C    2  px     Val( 2p)     0.97821       0.10679
     9    C    2  py     Val( 2p)     0.96439       0.10979
    10    C    2  pz     Val( 2p)     0.96055       0.11303

    11    C    3  S      Cor( 1S)     1.99989     -11.03499
    12    C    3  S      Val( 2S)     1.08801      -0.21682
    13    C    3  px     Val( 2p)     0.96796       0.08750
    14    C    3  py     Val( 2p)     0.91838       0.09870
    15    C    3  pz     Val( 2p)     0.87979       0.11573

    16    C    4  S      Cor( 1S)     1.99996     -10.96943
    17    C    4  S      Val( 2S)     1.08277      -0.18251
    18    C    4  px     Val( 2p)     0.98178       0.10188
    19    C    4  py     Val( 2p)     1.00294       0.09986
    20    C    4  pz     Val( 2p)     0.99894       0.10021

    21    C    5  S      Cor( 1S)     1.99995     -10.98838
    22    C    5  S      Val( 2S)     1.10011      -0.20760
    23    C    5  px     Val( 2p)     0.95656       0.10764
    24    C    5  py     Val( 2p)     0.96675       0.10465
    25    C    5  pz     Val( 2p)     0.98485       0.10334

    26    C    6  S      Cor( 1S)     1.99996     -10.97132
    27    C    6  S      Val( 2S)     1.08336      -0.18480
    28    C    6  px     Val( 2p)     0.97718       0.10311
    29    C    6  py     Val( 2p)     0.98786       0.09835
    30    C    6  pz     Val( 2p)     1.01308       0.09696

    31    C    7  S      Cor( 1S)     1.99996     -10.97674
    32    C    7  S      Val( 2S)     1.09407      -0.20126
    33    C    7  px     Val( 2p)     0.98948       0.09013
    34    C    7  py     Val( 2p)     1.00356       0.08810
    35    C    7  pz     Val( 2p)     1.00189       0.08437

    36    O    8  S      Cor( 1S)     1.99999     -20.14146
    37    O    8  S      Val( 2S)     1.74535      -0.99789
    38    O    8  px     Val( 2p)     1.72510      -0.27342
    39    O    8  py     Val( 2p)     1.33469      -0.10732
    40    O    8  pz     Val( 2p)     1.53307      -0.19804

    41    C    9  S      Cor( 1S)     1.99996     -10.98613
    42    C    9  S      Val( 2S)     1.08466      -0.19022
    43    C    9  px     Val( 2p)     0.94776       0.11711
    44    C    9  py     Val( 2p)     0.97064       0.11352
    45    C    9  pz     Val( 2p)     0.97262       0.11469

    46    C   10  S      Cor( 1S)     1.99997     -10.95974
    47    C   10  S      Val( 2S)     1.08201      -0.17857
    48    C   10  px     Val( 2p)     1.01304       0.08896
    49    C   10  py     Val( 2p)     1.00897       0.09125
    50    C   10  pz     Val( 2p)     1.02374       0.09047

    51    C   11  S      Cor( 1S)     1.99997     -10.95184
    52    C   11  S      Val( 2S)     1.08015      -0.16930
    53    C   11  px     Val( 2p)     1.03112       0.09459
    54    C   11  py     Val( 2p)     1.03043       0.09526
    55    C   11  pz     Val( 2p)     0.99261       0.10237

    56    H   12  S      Val( 1S)     0.95273       0.09310

    57    H   13  S      Val( 1S)     0.96776       0.07563

    58    H   14  S      Val( 1S)     0.96546       0.07823

    59    H   15  S      Val( 1S)     0.97728       0.06734

    60    H   16  S      Val( 1S)     0.99711       0.04734

    61    H   17  S      Val( 1S)     0.96330       0.08615

    62    H   18  S      Val( 1S)     0.97065       0.07588

    63    H   19  S      Val( 1S)     0.97844       0.06274

    64    H   20  S      Val( 1S)     0.97027       0.07379

    65    H   21  S      Val( 1S)     0.97602       0.07028

    66    H   22  S      Val( 1S)     0.97456       0.05987

    67    H   23  S      Val( 1S)     0.97000       0.06477

    68    H   24  S      Val( 1S)     0.80896       0.07449

    69    H   25  S      Val( 1S)     0.97880       0.07089

    70    H   26  S      Val( 1S)     0.96524       0.07915

    71    H   27  S      Val( 1S)     0.96762       0.07659

    72    H   28  S      Val( 1S)     0.96423       0.07833

    73    H   29  S      Val( 1S)     0.96515       0.08546

    74    H   30  S      Val( 1S)     0.94846       0.10424

    75    H   31  S      Val( 1S)     0.96663       0.08241


 Summary of Natural Population Analysis:                  
                                                          
                                       Natural Population 
                Natural  -----------------------------------------------
    Atom  No    Charge         Core      Valence    Rydberg      Total
 -----------------------------------------------------------------------
      C    1   -0.13294      1.99997     4.13297    0.00000     6.13294
      C    2    0.01650      1.99997     3.98353    0.00000     5.98350
      C    3    0.14596      1.99989     3.85415    0.00000     5.85404
      C    4   -0.06639      1.99996     4.06643    0.00000     6.06639
      C    5   -0.00822      1.99995     4.00827    0.00000     6.00822
      C    6   -0.06144      1.99996     4.06148    0.00000     6.06144
      C    7   -0.08895      1.99996     4.08899    0.00000     6.08895
      O    8   -0.33820      1.99999     6.33821    0.00000     8.33820
      C    9    0.02436      1.99996     3.97568    0.00000     5.97564
      C   10   -0.12774      1.99997     4.12777    0.00000     6.12774
      C   11   -0.13428      1.99997     4.13431    0.00000     6.13428
      H   12    0.04727      0.00000     0.95273    0.00000     0.95273
      H   13    0.03224      0.00000     0.96776    0.00000     0.96776
      H   14    0.03454      0.00000     0.96546    0.00000     0.96546
      H   15    0.02272      0.00000     0.97728    0.00000     0.97728
      H   16    0.00289      0.00000     0.99711    0.00000     0.99711
      H   17    0.03670      0.00000     0.96330    0.00000     0.96330
      H   18    0.02935      0.00000     0.97065    0.00000     0.97065
      H   19    0.02156      0.00000     0.97844    0.00000     0.97844
      H   20    0.02973      0.00000     0.97027    0.00000     0.97027
      H   21    0.02398      0.00000     0.97602    0.00000     0.97602
      H   22    0.02544      0.00000     0.97456    0.00000     0.97456
      H   23    0.03000      0.00000     0.97000    0.00000     0.97000
      H   24    0.19104      0.00000     0.80896    0.00000     0.80896
      H   25    0.02120      0.00000     0.97880    0.00000     0.97880
      H   26    0.03476      0.00000     0.96524    0.00000     0.96524
      H   27    0.03238      0.00000     0.96762    0.00000     0.96762
      H   28    0.03577      0.00000     0.96423    0.00000     0.96423
      H   29    0.03485      0.00000     0.96515    0.00000     0.96515
      H   30    0.05154      0.00000     0.94846    0.00000     0.94846
      H   31    0.03337      0.00000     0.96663    0.00000     0.96663
 =======================================================================
   * Total *    0.00000     21.99954    66.00046    0.00000    88.00000

                                 Natural Population      
 --------------------------------------------------------
   Core                      21.99954 ( 99.9979% of  22)
   Valence                   66.00046 (100.0007% of  66)
   Natural Minimal Basis     88.00000 (100.0000% of  88)
   Natural Rydberg Basis      0.00000 (  0.0000% of  88)
 --------------------------------------------------------

    Atom  No          Natural Electron Configuration
 ----------------------------------------------------------------------------
      C    1      [core]2S( 1.08)2p( 3.05)
      C    2      [core]2S( 1.08)2p( 2.90)
      C    3      [core]2S( 1.09)2p( 2.77)
      C    4      [core]2S( 1.08)2p( 2.98)
      C    5      [core]2S( 1.10)2p( 2.91)
      C    6      [core]2S( 1.08)2p( 2.98)
      C    7      [core]2S( 1.09)2p( 2.99)
      O    8      [core]2S( 1.75)2p( 4.59)
      C    9      [core]2S( 1.08)2p( 2.89)
      C   10      [core]2S( 1.08)2p( 3.05)
      C   11      [core]2S( 1.08)2p( 3.05)
      H   12            1S( 0.95)
      H   13            1S( 0.97)
      H   14            1S( 0.97)
      H   15            1S( 0.98)
      H   16            1S( 1.00)
      H   17            1S( 0.96)
      H   18            1S( 0.97)
      H   19            1S( 0.98)
      H   20            1S( 0.97)
      H   21            1S( 0.98)
      H   22            1S( 0.97)
      H   23            1S( 0.97)
      H   24            1S( 0.81)
      H   25            1S( 0.98)
      H   26            1S( 0.97)
      H   27            1S( 0.97)
      H   28            1S( 0.96)
      H   29            1S( 0.97)
      H   30            1S( 0.95)
      H   31            1S( 0.97)


 NATURAL BOND ORBITAL ANALYSIS:

                       Occupancies       Lewis Structure    Low   High
           Occ.    -------------------  -----------------   occ   occ
  Cycle   Thresh.   Lewis   Non-Lewis     CR  BD  3C  LP    (L)   (NL)   Dev
 =============================================================================
   1(1)    1.90    87.63622   0.36378     11  31   0   2     0      0    0.02
 -----------------------------------------------------------------------------

 Structure accepted: No low occupancy Lewis orbitals

 --------------------------------------------------------
   Core                     21.99954 ( 99.998% of  22)
   Valence Lewis            65.63669 ( 99.450% of  66)
  ==================       ============================
   Total Lewis              87.63622 ( 99.587% of  88)
  -----------------------------------------------------
   Valence non-Lewis         0.36378 (  0.413% of  88)
   Rydberg non-Lewis         0.00000 (  0.000% of  88)
  ==================       ============================
   Total non-Lewis           0.36378 (  0.413% of  88)
 --------------------------------------------------------


       (Occupancy)   Bond orbital/ Coefficients/ Hybrids
 ---------------------------------------------------------------------------------
     1. (1.99063) BD ( 1) C   1 - C   2  
                ( 50.79%)   0.7127* C   1 s( 25.84%)p 2.87( 74.16%)
                                            0.0001  0.5084  0.3197 -0.3991 -0.6929
                ( 49.21%)   0.7015* C   2 s( 25.22%)p 2.96( 74.78%)
                                            0.0000  0.5022 -0.2700  0.4253  0.7028
     2. (1.99545) BD ( 1) C   1 - H  12  
                ( 52.45%)   0.7242* C   1 s( 25.07%)p 2.99( 74.93%)
                                            0.0000  0.5007  0.6429  0.3483  0.4634
                ( 47.55%)   0.6896* H  12 s(100.00%)
                                            1.0000
     3. (1.99476) BD ( 1) C   1 - H  13  
                ( 51.62%)   0.7185* C   1 s( 24.66%)p 3.06( 75.34%)
                                            0.0000  0.4965 -0.5468  0.6265 -0.2488
                ( 48.38%)   0.6956* H  13 s(100.00%)
                                            1.0000
     4. (1.99479) BD ( 1) C   1 - H  14  
                ( 51.73%)   0.7192* C   1 s( 24.43%)p 3.09( 75.57%)
                                            0.0000  0.4943 -0.4307 -0.5718  0.4932
                ( 48.27%)   0.6948* H  14 s(100.00%)
                                            1.0000
     5. (1.98535) BD ( 1) C   2 - C   6  
                ( 49.72%)   0.7051* C   2 s( 25.24%)p 2.96( 74.76%)
                                            0.0000  0.5023  0.5737 -0.6055  0.2278
                ( 50.28%)   0.7091* C   6 s( 25.43%)p 2.93( 74.57%)
                                            0.0001  0.5042 -0.5427  0.6403 -0.2030
     6. (1.98516) BD ( 1) C   2 - C   7  
                ( 49.24%)   0.7017* C   2 s( 25.20%)p 2.97( 74.80%)
                                            0.0000  0.5020  0.3657  0.5546 -0.5538
                ( 50.76%)   0.7125* C   7 s( 25.44%)p 2.93( 74.56%)
                                            0.0001  0.5044 -0.3180 -0.5293  0.6036
     7. (1.98430) BD ( 1) C   2 - H  15  
                ( 51.01%)   0.7142* C   2 s( 24.34%)p 3.11( 75.66%)
                                            0.0000  0.4934 -0.6814 -0.3807 -0.3839
                ( 48.99%)   0.6999* H  15 s(100.00%)
                                            1.0000
     8. (1.98141) BD ( 1) C   3 - C   5  
                ( 50.84%)   0.7130* C   3 s( 26.68%)p 2.75( 73.32%)
                                            0.0000  0.5165  0.5247 -0.6350  0.2338
                ( 49.16%)   0.7012* C   5 s( 24.75%)p 3.04( 75.25%)
                                            0.0001  0.4975 -0.5221  0.6757 -0.1525
     9. (1.98774) BD ( 1) C   3 - C   7  
                ( 49.25%)   0.7018* C   3 s( 25.57%)p 2.91( 74.43%)
                                            0.0000  0.5057 -0.7842 -0.3062 -0.1886
                ( 50.75%)   0.7124* C   7 s( 25.31%)p 2.95( 74.69%)
                                            0.0000  0.5031  0.7823  0.2801  0.2373
    10. (1.98922) BD ( 1) C   3 - O   8  
                ( 40.85%)   0.6391* C   3 s( 22.34%)p 3.48( 77.66%)
                                            0.0000  0.4727 -0.0777  0.5670  0.6702
                ( 59.15%)   0.7691* O   8 s( 16.91%)p 4.91( 83.09%)
                                            0.0000  0.4112  0.0278 -0.5598 -0.7188
    11. (1.98830) BD ( 1) C   3 - H  16  
                ( 50.43%)   0.7101* C   3 s( 25.41%)p 2.94( 74.59%)
                                            0.0000  0.5041  0.3219  0.4261 -0.6787
                ( 49.57%)   0.7041* H  16 s(100.00%)
                                            1.0000
    12. (1.98542) BD ( 1) C   4 - C   5  
                ( 50.16%)   0.7082* C   4 s( 25.25%)p 2.96( 74.75%)
                                            0.0001  0.5025  0.3328  0.5026 -0.6198
                ( 49.84%)   0.7060* C   5 s( 25.42%)p 2.93( 74.58%)
                                            0.0000  0.5042 -0.3236 -0.4760  0.6438
    13. (1.98936) BD ( 1) C   4 - C   6  
                ( 49.87%)   0.7062* C   4 s( 24.98%)p 3.00( 75.02%)
                                            0.0000  0.4998 -0.7798 -0.2861 -0.2454
                ( 50.13%)   0.7080* C   6 s( 25.35%)p 2.94( 74.65%)
                                            0.0000  0.5035  0.7666  0.3260  0.2293
    14. (1.99007) BD ( 1) C   4 - H  17  
                ( 51.87%)   0.7202* C   4 s( 24.89%)p 3.02( 75.11%)
                                            0.0000  0.4989 -0.0782  0.4564  0.7326
                ( 48.13%)   0.6938* H  17 s(100.00%)
                                            1.0000
    15. (1.98887) BD ( 1) C   4 - H  18  
                ( 51.43%)   0.7171* C   4 s( 24.87%)p 3.02( 75.13%)
                                            0.0000  0.4987  0.5245 -0.6762  0.1377
                ( 48.57%)   0.6970* H  18 s(100.00%)
                                            1.0000
    16. (1.97916) BD ( 1) C   5 - C   9  
                ( 50.34%)   0.7095* C   5 s( 25.74%)p 2.89( 74.26%)
                                            0.0001  0.5073  0.7877  0.2818  0.2069
                ( 49.66%)   0.7047* C   9 s( 25.41%)p 2.93( 74.59%)
                                            0.0001  0.5041 -0.8122 -0.2663 -0.1238
    17. (1.98228) BD ( 1) C   5 - H  19  
                ( 50.93%)   0.7137* C   5 s( 24.09%)p 3.15( 75.91%)
                                            0.0000  0.4908  0.0475 -0.4873 -0.7207
                ( 49.07%)   0.7005* H  19 s(100.00%)
                                            1.0000
    18. (1.98993) BD ( 1) C   6 - H  20  
                ( 51.47%)   0.7174* C   6 s( 25.02%)p 3.00( 74.98%)
                                            0.0000  0.5002 -0.3270 -0.4637  0.6541
                ( 48.53%)   0.6966* H  20 s(100.00%)
                                            1.0000
    19. (1.99056) BD ( 1) C   6 - H  21  
                ( 51.20%)   0.7155* C   6 s( 24.20%)p 3.13( 75.80%)
                                            0.0000  0.4920  0.1043 -0.5184 -0.6916
                ( 48.80%)   0.6986* H  21 s(100.00%)
                                            1.0000
    20. (1.98825) BD ( 1) C   7 - H  22  
                ( 51.23%)   0.7158* C   7 s( 25.02%)p 3.00( 74.98%)
                                            0.0000  0.5002 -0.5315  0.6754 -0.1058
                ( 48.77%)   0.6983* H  22 s(100.00%)
                                            1.0000
    21. (1.98887) BD ( 1) C   7 - H  23  
                ( 51.43%)   0.7172* C   7 s( 24.22%)p 3.13( 75.78%)
                                            0.0000  0.4921  0.0663 -0.4304 -0.7538
                ( 48.57%)   0.6969* H  23 s(100.00%)
                                            1.0000
    22. (1.98868) BD ( 1) O   8 - H  24  
                ( 59.55%)   0.7717* O   8 s( 16.89%)p 4.92( 83.11%)
                                            0.0000  0.4110 -0.5592  0.6558 -0.2972
                ( 40.45%)   0.6360* H  24 s(100.00%)
                                            1.0000
    23. (1.98922) BD ( 1) C   9 - C  10  
                ( 48.83%)   0.6988* C   9 s( 24.52%)p 3.08( 75.48%)
                                            0.0000  0.4952  0.5446 -0.6651 -0.1257
                ( 51.17%)   0.7153* C  10 s( 25.76%)p 2.88( 74.24%)
                                            0.0001  0.5076 -0.5672  0.6335  0.1390
    24. (1.99003) BD ( 1) C   9 - C  11  
                ( 49.40%)   0.7028* C   9 s( 25.63%)p 2.90( 74.37%)
                                            0.0000  0.5062  0.0931  0.3014  0.8026
                ( 50.60%)   0.7113* C  11 s( 25.88%)p 2.86( 74.12%)
                                            0.0001  0.5087 -0.1469 -0.3184 -0.7863
    25. (1.98438) BD ( 1) C   9 - H  25  
                ( 50.96%)   0.7139* C   9 s( 24.44%)p 3.09( 75.56%)
                                            0.0000  0.4943  0.1874  0.6292 -0.5698
                ( 49.04%)   0.7003* H  25 s(100.00%)
                                            1.0000
    26. (1.99529) BD ( 1) C  10 - H  26  
                ( 51.79%)   0.7197* C  10 s( 24.91%)p 3.01( 75.09%)
                                            0.0000  0.4991 -0.1327 -0.6429  0.5657
                ( 48.21%)   0.6943* H  26 s(100.00%)
                                            1.0000
    27. (1.99515) BD ( 1) C  10 - H  27  
                ( 51.64%)   0.7186* C  10 s( 24.64%)p 3.06( 75.36%)
                                            0.0000  0.4964 -0.0946 -0.3053 -0.8071
                ( 48.36%)   0.6954* H  27 s(100.00%)
                                            1.0000
    28. (1.99485) BD ( 1) C  10 - H  28  
                ( 51.79%)   0.7197* C  10 s( 24.68%)p 3.05( 75.32%)
                                            0.0000  0.4968  0.8073  0.3037  0.0961
                ( 48.21%)   0.6943* H  28 s(100.00%)
                                            1.0000
    29. (1.99509) BD ( 1) C  11 - H  29  
                ( 51.78%)   0.7196* C  11 s( 24.78%)p 3.03( 75.22%)
                                            0.0000  0.4978 -0.1348 -0.6151  0.5964
                ( 48.22%)   0.6944* H  29 s(100.00%)
                                            1.0000
    30. (1.99508) BD ( 1) C  11 - H  30  
                ( 52.65%)   0.7256* C  11 s( 25.03%)p 3.00( 74.97%)
                                            0.0000  0.5003 -0.5292  0.6682  0.1520
                ( 47.35%)   0.6881* H  30 s(100.00%)
                                            1.0000
    31. (1.99412) BD ( 1) C  11 - H  31  
                ( 51.65%)   0.7187* C  11 s( 24.31%)p 3.11( 75.69%)
                                            0.0000  0.4930  0.8247  0.2715  0.0549
                ( 48.35%)   0.6953* H  31 s(100.00%)
                                            1.0000
    32. (1.99997) CR ( 1) C   1           s(100.00%)
                                            1.0000  0.0000  0.0000  0.0000  0.0001
    33. (1.99997) CR ( 1) C   2           s(100.00%)
                                            1.0000  0.0000  0.0000  0.0000  0.0000
    34. (1.99989) CR ( 1) C   3           s(100.00%)
                                            1.0000  0.0000  0.0000  0.0000  0.0000
    35. (1.99996) CR ( 1) C   4           s(100.00%)
                                            1.0000  0.0000  0.0000 -0.0001  0.0000
    36. (1.99995) CR ( 1) C   5           s(100.00%)
                                            1.0000 -0.0001  0.0000  0.0000  0.0000
    37. (1.99996) CR ( 1) C   6           s(100.00%)
                                            1.0000  0.0000  0.0000 -0.0001  0.0000
    38. (1.99996) CR ( 1) C   7           s(100.00%)
                                            1.0000  0.0000  0.0000  0.0000 -0.0001
    39. (1.99999) CR ( 1) O   8           s(100.00%)
                                            1.0000  0.0000  0.0000  0.0000  0.0000
    40. (1.99996) CR ( 1) C   9           s(100.00%)
                                            1.0000  0.0000  0.0001  0.0000  0.0000
    41. (1.99997) CR ( 1) C  10           s(100.00%)
                                            1.0000  0.0000  0.0001  0.0000  0.0000
    42. (1.99997) CR ( 1) C  11           s(100.00%)
                                            1.0000  0.0000  0.0000  0.0000  0.0001
    43. (1.99118) LP ( 1) O   8           s( 66.03%)p 0.51( 33.97%)
                                            0.0000  0.8126  0.2292 -0.0733  0.5308
    44. (1.97374) LP ( 2) O   8           s(  0.16%)p99.99( 99.84%)
                                            0.0000  0.0404  0.7962  0.5012 -0.3365
    45. (0.01101) BD*( 1) C   1 - C   2  
                ( 49.21%)   0.7015* C   1 s( 25.84%)p 2.87( 74.16%)
                                           -0.0001 -0.5084 -0.3197  0.3991  0.6929
                ( 50.79%)  -0.7127* C   2 s( 25.22%)p 2.96( 74.78%)
                                            0.0000 -0.5022  0.2700 -0.4253 -0.7028
    46. (0.00743) BD*( 1) C   1 - H  12  
                ( 47.55%)   0.6896* C   1 s( 25.07%)p 2.99( 74.93%)
                                            0.0000 -0.5007 -0.6429 -0.3483 -0.4634
                ( 52.45%)  -0.7242* H  12 s(100.00%)
                                           -1.0000
    47. (0.00514) BD*( 1) C   1 - H  13  
                ( 48.38%)   0.6956* C   1 s( 24.66%)p 3.06( 75.34%)
                                            0.0000 -0.4965  0.5468 -0.6265  0.2488
                ( 51.62%)  -0.7185* H  13 s(100.00%)
                                           -1.0000
    48. (0.00487) BD*( 1) C   1 - H  14  
                ( 48.27%)   0.6948* C   1 s( 24.43%)p 3.09( 75.57%)
                                            0.0000 -0.4943  0.4307  0.5718 -0.4932
                ( 51.73%)  -0.7192* H  14 s(100.00%)
                                           -1.0000
    49. (0.01630) BD*( 1) C   2 - C   6  
                ( 50.28%)   0.7091* C   2 s( 25.24%)p 2.96( 74.76%)
                                            0.0000  0.5023  0.5737 -0.6055  0.2278
                ( 49.72%)  -0.7051* C   6 s( 25.43%)p 2.93( 74.57%)
                                            0.0001  0.5042 -0.5427  0.6403 -0.2030
    50. (0.01687) BD*( 1) C   2 - C   7  
                ( 50.76%)   0.7125* C   2 s( 25.20%)p 2.97( 74.80%)
                                            0.0000  0.5020  0.3657  0.5546 -0.5538
                ( 49.24%)  -0.7017* C   7 s( 25.44%)p 2.93( 74.56%)
                                            0.0001  0.5044 -0.3180 -0.5293  0.6036
    51. (0.01016) BD*( 1) C   2 - H  15  
                ( 48.99%)   0.6999* C   2 s( 24.34%)p 3.11( 75.66%)
                                            0.0000 -0.4934  0.6814  0.3807  0.3839
                ( 51.01%)  -0.7142* H  15 s(100.00%)
                                           -1.0000
    52. (0.02736) BD*( 1) C   3 - C   5  
                ( 49.16%)   0.7012* C   3 s( 26.68%)p 2.75( 73.32%)
                                            0.0000 -0.5165 -0.5247  0.6350 -0.2338
                ( 50.84%)  -0.7130* C   5 s( 24.75%)p 3.04( 75.25%)
                                           -0.0001 -0.4975  0.5221 -0.6757  0.1525
    53. (0.02836) BD*( 1) C   3 - C   7  
                ( 50.75%)   0.7124* C   3 s( 25.57%)p 2.91( 74.43%)
                                            0.0000  0.5057 -0.7842 -0.3062 -0.1886
                ( 49.25%)  -0.7018* C   7 s( 25.31%)p 2.95( 74.69%)
                                            0.0000  0.5031  0.7823  0.2801  0.2373
    54. (0.02269) BD*( 1) C   3 - O   8  
                ( 59.15%)   0.7691* C   3 s( 22.34%)p 3.48( 77.66%)
                                            0.0000  0.4727 -0.0777  0.5670  0.6702
                ( 40.85%)  -0.6391* O   8 s( 16.91%)p 4.91( 83.09%)
                                            0.0000  0.4112  0.0278 -0.5598 -0.7188
    55. (0.02282) BD*( 1) C   3 - H  16  
                ( 49.57%)   0.7041* C   3 s( 25.41%)p 2.94( 74.59%)
                                            0.0000 -0.5041 -0.3219 -0.4261  0.6787
                ( 50.43%)  -0.7101* H  16 s(100.00%)
                                           -1.0000
    56. (0.01619) BD*( 1) C   4 - C   5  
                ( 49.84%)   0.7060* C   4 s( 25.25%)p 2.96( 74.75%)
                                           -0.0001 -0.5025 -0.3328 -0.5026  0.6198
                ( 50.16%)  -0.7082* C   5 s( 25.42%)p 2.93( 74.58%)
                                            0.0000 -0.5042  0.3236  0.4760 -0.6438
    57. (0.01172) BD*( 1) C   4 - C   6  
                ( 50.13%)   0.7080* C   4 s( 24.98%)p 3.00( 75.02%)
                                            0.0000  0.4998 -0.7798 -0.2861 -0.2454
                ( 49.87%)  -0.7062* C   6 s( 25.35%)p 2.94( 74.65%)
                                            0.0000  0.5035  0.7666  0.3260  0.2293
    58. (0.01056) BD*( 1) C   4 - H  17  
                ( 48.13%)   0.6938* C   4 s( 24.89%)p 3.02( 75.11%)
                                            0.0000 -0.4989  0.0782 -0.4564 -0.7326
                ( 51.87%)  -0.7202* H  17 s(100.00%)
                                           -1.0000
    59. (0.00890) BD*( 1) C   4 - H  18  
                ( 48.57%)   0.6970* C   4 s( 24.87%)p 3.02( 75.13%)
                                            0.0000 -0.4987 -0.5245  0.6762 -0.1377
                ( 51.43%)  -0.7171* H  18 s(100.00%)
                                           -1.0000
    60. (0.02242) BD*( 1) C   5 - C   9  
                ( 49.66%)   0.7047* C   5 s( 25.74%)p 2.89( 74.26%)
                                           -0.0001 -0.5073 -0.7877 -0.2818 -0.2069
                ( 50.34%)  -0.7095* C   9 s( 25.41%)p 2.93( 74.59%)
                                           -0.0001 -0.5041  0.8122  0.2663  0.1238
    61. (0.01139) BD*( 1) C   5 - H  19  
                ( 49.07%)   0.7005* C   5 s( 24.09%)p 3.15( 75.91%)
                                            0.0000 -0.4908 -0.0475  0.4873  0.7207
                ( 50.93%)  -0.7137* H  19 s(100.00%)
                                           -1.0000
    62. (0.00882) BD*( 1) C   6 - H  20  
                ( 48.53%)   0.6966* C   6 s( 25.02%)p 3.00( 74.98%)
                                            0.0000 -0.5002  0.3270  0.4637 -0.6541
                ( 51.47%)  -0.7174* H  20 s(100.00%)
                                           -1.0000
    63. (0.00897) BD*( 1) C   6 - H  21  
                ( 48.80%)   0.6986* C   6 s( 24.20%)p 3.13( 75.80%)
                                            0.0000 -0.4920 -0.1043  0.5184  0.6916
                ( 51.20%)  -0.7155* H  21 s(100.00%)
                                           -1.0000
    64. (0.00969) BD*( 1) C   7 - H  22  
                ( 48.77%)   0.6983* C   7 s( 25.02%)p 3.00( 74.98%)
                                            0.0000 -0.5002  0.5315 -0.6754  0.1058
                ( 51.23%)  -0.7158* H  22 s(100.00%)
                                           -1.0000
    65. (0.00793) BD*( 1) C   7 - H  23  
                ( 48.57%)   0.6969* C   7 s( 24.22%)p 3.13( 75.78%)
                                            0.0000 -0.4921 -0.0663  0.4304  0.7538
                ( 51.43%)  -0.7172* H  23 s(100.00%)
                                           -1.0000
    66. (0.00769) BD*( 1) O   8 - H  24  
                ( 40.45%)   0.6360* O   8 s( 16.89%)p 4.92( 83.11%)
                                            0.0000 -0.4110  0.5592 -0.6558  0.2972
                ( 59.55%)  -0.7717* H  24 s(100.00%)
                                           -1.0000
    67. (0.01001) BD*( 1) C   9 - C  10  
                ( 51.17%)   0.7153* C   9 s( 24.52%)p 3.08( 75.48%)
                                            0.0000  0.4952  0.5446 -0.6651 -0.1257
                ( 48.83%)  -0.6988* C  10 s( 25.76%)p 2.88( 74.24%)
                                            0.0001  0.5076 -0.5672  0.6335  0.1390
    68. (0.01041) BD*( 1) C   9 - C  11  
                ( 50.60%)   0.7113* C   9 s( 25.63%)p 2.90( 74.37%)
                                            0.0000  0.5062  0.0931  0.3014  0.8026
                ( 49.40%)  -0.7028* C  11 s( 25.88%)p 2.86( 74.12%)
                                            0.0001  0.5087 -0.1469 -0.3184 -0.7863
    69. (0.01110) BD*( 1) C   9 - H  25  
                ( 49.04%)   0.7003* C   9 s( 24.44%)p 3.09( 75.56%)
                                            0.0000 -0.4943 -0.1874 -0.6292  0.5698
                ( 50.96%)  -0.7139* H  25 s(100.00%)
                                           -1.0000
    70. (0.00644) BD*( 1) C  10 - H  26  
                ( 48.21%)   0.6943* C  10 s( 24.91%)p 3.01( 75.09%)
                                            0.0000 -0.4991  0.1327  0.6429 -0.5657
                ( 51.79%)  -0.7197* H  26 s(100.00%)
                                           -1.0000
    71. (0.00543) BD*( 1) C  10 - H  27  
                ( 48.36%)   0.6954* C  10 s( 24.64%)p 3.06( 75.36%)
                                            0.0000 -0.4964  0.0946  0.3053  0.8071
                ( 51.64%)  -0.7186* H  27 s(100.00%)
                                           -1.0000
    72. (0.00497) BD*( 1) C  10 - H  28  
                ( 48.21%)   0.6943* C  10 s( 24.68%)p 3.05( 75.32%)
                                            0.0000 -0.4968 -0.8073 -0.3037 -0.0961
[...]
   38     200.0125       -0.0025     200.0150         0.0033     200.0092
 Sum      212.3336      -23.4508     235.7845       -27.1076     239.4412

 Contributions to Isotropic shielding for atom    8 (   357.1940 ppm):
                         Standard Origin              Atomic Origin
 NLMO      Total    Paramagnetic  Diamagnetic   Paramagnetic  Diamagnetic
    8       1.0205        0.4326       0.5879         0.3768       0.6437
   10      26.6023       10.5203      16.0820        15.9223      10.6800
   11       0.2731       -0.1924       0.4655        -1.0127       1.2858
   20      -0.7926       -1.3680       0.5754        -1.7042       0.9116
   21      -0.8883       -1.2919       0.4036        -1.2173       0.3289
   22      19.4320       10.7412       8.6908         4.9840      14.4480
   30      -0.3387       -1.0264       0.6878        -0.7257       0.3870
   39     271.1702       -0.0042     271.1744        -0.0039     271.1742
   43      34.5338       -3.9247      38.4585        -2.8392      37.3729
   44       4.8961      -34.2952      39.1913       -35.0405      39.9367
 Sum      355.9084      -20.4089     376.3172       -21.2604     377.1688

 Contributions to Isotropic shielding for atom    9 (   212.3820 ppm):
                         Standard Origin              Atomic Origin
 NLMO      Total    Paramagnetic  Diamagnetic   Paramagnetic  Diamagnetic
   10       0.1118       -0.3799       0.4918        -1.2075       1.3193
   16       5.2660       -9.4616      14.7276        -2.3443       7.6103
   23      -2.1730       -4.3857       2.2127        -9.5394       7.3664
   24      -0.5096       -6.6978       6.1882        -8.2552       7.7456
   25       5.3363       -2.0374       7.3736        -5.5250      10.8612
   26       1.0607       -0.3598       1.4205         0.0327       1.0280
   27       0.7329       -0.6072       1.3401        -0.2858       1.0186
   28       0.6567       -0.3556       1.0123        -0.3674       1.0240
   29       0.8732       -0.2448       1.1180        -0.1465       1.0197
   30       0.6041       -0.5865       1.1907        -0.4289       1.0330
   31       0.6002       -0.1644       0.7646        -0.4208       1.0211
   40     199.9234       -0.0017     199.9251         0.0023     199.9211
 Sum      212.4827      -25.2826     237.7653       -28.4857     240.9684

 Contributions to Isotropic shielding for atom   10 (   220.2115 ppm):
                         Standard Origin              Atomic Origin
 NLMO      Total    Paramagnetic  Diamagnetic   Paramagnetic  Diamagnetic
   17      -0.2659       -0.0830      -0.1829        -1.2058       0.9399
   23       4.6363      -11.9167      16.5531        -3.4441       8.0804
   24      -0.5092        0.1090      -0.6182        -1.2651       0.7559
   25       0.2918        0.1376       0.1542        -0.7466       1.0384
   26       6.2648       -4.3511      10.6159        -4.8694      11.1342
   27       5.0130       -3.9450       8.9580        -6.0262      11.0392
   28       4.4763        2.1799       2.2965        -6.6249      11.1012
   41     200.0754       -0.0039     200.0793         0.0023     200.0731
 Sum      219.9826      -17.8732     237.8557       -24.1797     244.1623

 Contributions to Isotropic shielding for atom   11 (   223.2317 ppm):
                         Standard Origin              Atomic Origin
 NLMO      Total    Paramagnetic  Diamagnetic   Paramagnetic  Diamagnetic
   10       0.1031       -0.3123       0.4154        -1.0346       1.1377
   12      -0.1198       -0.0440      -0.0758        -1.0280       0.9082
   23      -0.3992        0.0437      -0.4428        -1.0965       0.6973
   24       3.9590       -8.9199      12.8789        -3.8365       7.7955
   29       6.7610       -4.0216      10.7826        -4.3501      11.1110
   30       6.5269       -6.1651      12.6921        -4.8992      11.4261
   31       5.6842        3.3343       2.3498        -5.3295      11.0137
   42     200.0738       -0.0025     200.0763         0.0016     200.0722
 Sum      222.5889      -16.0875     238.6764       -21.5727     244.1617

 Contributions to Isotropic shielding for atom   12 (    32.0391 ppm):
                         Standard Origin              Atomic Origin
 NLMO      Total    Paramagnetic  Diamagnetic   Paramagnetic  Diamagnetic
    1       1.6007       -1.2525       2.8533         0.7088       0.8919
    2      26.0093        0.4057      25.6036         0.3856      25.6236
    3       1.9528        0.9082       1.0447         0.1315       1.8213
    4       1.9657        1.0507       0.9150         0.1086       1.8571
   43      -0.2426        0.1382      -0.3808         0.7957      -1.0383
 Sum       31.2860        1.2503      30.0357         2.1303      29.1556

 Contributions to Isotropic shielding for atom   13 (    32.7461 ppm):
                         Standard Origin              Atomic Origin
 NLMO      Total    Paramagnetic  Diamagnetic   Paramagnetic  Diamagnetic
    1       1.3116        0.3799       0.9317         0.3079       1.0036
    2       2.1204        0.5760       1.5444         0.2435       1.8769
    3      26.4552        0.1147      26.3406         0.4173      26.0379
    4       1.9372        2.3763      -0.4391         0.1080       1.8291
    6      -0.1236        0.2252      -0.3488        -1.0163       0.8927
 Sum       31.7009        3.6721      28.0288         0.0605      31.6404

 Contributions to Isotropic shielding for atom   14 (    32.5771 ppm):
                         Standard Origin              Atomic Origin
 NLMO      Total    Paramagnetic  Diamagnetic   Paramagnetic  Diamagnetic
    1       1.2775        0.5033       0.7742         0.2485       1.0290
    2       2.0947        0.6969       1.3978         0.2010       1.8937
    3       1.9287        2.3287      -0.4000         0.0912       1.8375
    4      26.4146        0.0831      26.3315         0.4283      25.9862
 Sum       31.7155        3.6120      28.1035         0.9691      30.7464

 Contributions to Isotropic shielding for atom   15 (    32.4410 ppm):
                         Standard Origin              Atomic Origin
 NLMO      Total    Paramagnetic  Diamagnetic   Paramagnetic  Diamagnetic
    1       0.7938        2.2500      -1.4562        -0.2653       1.0591
    4       0.2136       -0.2920       0.5056        -0.7928       1.0064
    5       1.2445        1.3116      -0.0672         0.2369       1.0075
    6       1.2326        1.3029      -0.0703         0.2251       1.0075
    7      26.6040       -0.3364      26.9404         0.5072      26.0968
   19       0.1236        0.0771       0.0466        -0.9284       1.0521
   21       0.0903        0.0535       0.0367        -0.9858       1.0760
 Sum       30.3023        4.3667      25.9357        -2.0031      32.3054

 Contributions to Isotropic shielding for atom   16 (    31.9456 ppm):
                         Standard Origin              Atomic Origin
 NLMO      Total    Paramagnetic  Diamagnetic   Paramagnetic  Diamagnetic
    8       1.0460        0.3325       0.7136        -0.1297       1.1758
   10       0.6367        1.0667      -0.4300        -0.9336       1.5703
   11      26.8901        0.3249      26.5652         0.8210      26.0690
   21       0.1921       -0.4375       0.6296        -0.8541       1.0462
   25      -0.1649       -1.0041       0.8393        -0.8994       0.7345
 Sum       28.6001        0.2825      28.3175        -1.9958      30.5959

 Contributions to Isotropic shielding for atom   17 (    32.3492 ppm):
                         Standard Origin              Atomic Origin
 NLMO      Total    Paramagnetic  Diamagnetic   Paramagnetic  Diamagnetic
   10       0.1536       -0.5857       0.7393        -1.2152       1.3689
   12       1.3518        0.0324       1.3193         0.4841       0.8677
   13       1.1317        0.7785       0.3532         0.1848       0.9469
   14      26.1924        0.2135      25.9789         0.3985      25.7938
   15       2.0564        1.2880       0.7684         0.2987       1.7577
   29      -0.2644       -1.3159       1.0515        -1.0268       0.7624
   43      -0.5369        0.1616      -0.6985         0.4825      -1.0194
 Sum       30.0845        0.5724      29.5121        -0.3935      30.4781

 Contributions to Isotropic shielding for atom   18 (    32.5874 ppm):
                         Standard Origin              Atomic Origin
 NLMO      Total    Paramagnetic  Diamagnetic   Paramagnetic  Diamagnetic
   12       1.2683        0.6269       0.6414         0.3301       0.9382
   13       1.0712        1.4096      -0.3384         0.0472       1.0240
   14       2.1727        1.0878       1.0848         0.3959       1.7768
   15      26.4281        0.0404      26.3877         0.4138      26.0142
   19       0.2154       -0.4043       0.6197        -0.7898       1.0053
   26      -0.3109       -1.5296       1.2186        -0.8470       0.5361
 Sum       30.8448        1.2308      29.6139        -0.4498      31.2946

 Contributions to Isotropic shielding for atom   19 (    32.8050 ppm):
                         Standard Origin              Atomic Origin
 NLMO      Total    Paramagnetic  Diamagnetic   Paramagnetic  Diamagnetic
    8       1.3425        0.9789       0.3636         0.4364       0.9062
   12       1.2328        0.7795       0.4534         0.2056       1.0273
   16       1.0730        1.3888      -0.3158        -0.0152       1.0882
   17      26.5373       -0.0022      26.5395         0.4570      26.0803
   23      -0.0552       -0.7164       0.6612        -1.1367       1.0815
   27      -0.1359       -1.6727       1.5368        -1.0490       0.9131
 Sum       29.9946        0.7560      29.2386        -1.1020      31.0966

 Contributions to Isotropic shielding for atom   20 (    32.3972 ppm):
                         Standard Origin              Atomic Origin
 NLMO      Total    Paramagnetic  Diamagnetic   Paramagnetic  Diamagnetic
    1      -0.0759       -0.1453       0.0694        -1.0922       1.0164
    4      -0.0886       -1.0260       0.9374        -0.9923       0.9037
    5       1.0615        1.2411      -0.1795         0.1566       0.9049
   13       1.2538        0.4916       0.7622         0.2230       1.0307
   18      26.4473        0.0372      26.4101         0.4866      25.9607
   19       2.0012        1.7511       0.2502         0.2725       1.7287
 Sum       30.5993        2.3495      28.2498        -0.9457      31.5450

 Contributions to Isotropic shielding for atom   21 (    32.5717 ppm):
                         Standard Origin              Atomic Origin
 NLMO      Total    Paramagnetic  Diamagnetic   Paramagnetic  Diamagnetic
    5       1.1640        0.8510       0.3129         0.1751       0.9889
   13       1.3673        0.1076       1.2597         0.3824       0.9849
   18       1.9629        1.9028       0.0600         0.1820       1.7808
   19      26.5692        0.1010      26.4681         0.4406      26.1286
 Sum       31.0633        2.9625      28.1008         1.1801      29.8832

 Contributions to Isotropic shielding for atom   22 (    32.9010 ppm):
                         Standard Origin              Atomic Origin
 NLMO      Total    Paramagnetic  Diamagnetic   Paramagnetic  Diamagnetic
    1      -0.0891       -0.1293       0.0402        -1.0779       0.9888
    3      -0.1186       -1.1357       1.0171        -1.0070       0.8884
    6       1.0641        1.3202      -0.2561         0.0407       1.0233
    9       1.3370        0.5765       0.7605         0.4243       0.9127
   10      -0.2188        0.3429      -0.5617        -1.4001       1.1813
   20      26.5620        0.0914      26.4706         0.5019      26.0600
   21       2.0137        1.7417       0.2720         0.3001       1.7135
 Sum       30.5503        2.8076      27.7427        -2.2179      32.7681

 Contributions to Isotropic shielding for atom   23 (    32.4374 ppm):
                         Standard Origin              Atomic Origin
 NLMO      Total    Paramagnetic  Diamagnetic   Paramagnetic  Diamagnetic
    6       1.1680        0.8780       0.2901         0.0871       1.0809
    9       1.4733        0.2772       1.1961         0.5357       0.9375
   20       1.8378        1.7842       0.0536         0.0691       1.7687
   21      26.4615        0.1291      26.3324         0.4605      26.0011
 Sum       30.9406        3.0685      27.8721         1.1524      29.7882

 Contributions to Isotropic shielding for atom   24 (    35.2449 ppm):
                         Standard Origin              Atomic Origin
 NLMO      Total    Paramagnetic  Diamagnetic   Paramagnetic  Diamagnetic
    9      -0.1902        0.1094      -0.2996        -1.1785       0.9883
   10       1.3721        2.7973      -1.4252         0.6612       0.7109
   11       0.1972        0.1167       0.0805        -0.8291       1.0263
   22      23.0501       -0.5897      23.6398        -0.0868      23.1368
   43       4.1827        0.4820       3.7006         2.2405       1.9422
   44       5.6562        2.4792       3.1770         2.4915       3.1647
 Sum       34.2680        5.3948      28.8731         3.2988      30.9692

 Contributions to Isotropic shielding for atom   25 (    32.3410 ppm):
                         Standard Origin              Atomic Origin
 NLMO      Total    Paramagnetic  Diamagnetic   Paramagnetic  Diamagnetic
    8      -0.1765        0.2167      -0.3933        -1.1904       1.0139
   10       0.0700       -0.1414       0.2114        -1.1319       1.2019
   16       1.6462        0.0021       1.6441         0.6360       1.0102
   23       0.8208        2.1025      -1.2817        -0.1599       0.9807
   24       1.0305        1.4184      -0.3879        -0.0375       1.0680
   25      26.5293       -0.0602      26.5895         0.4390      26.0903
 Sum       29.9203        3.5381      26.3822        -1.4447      31.3650

 Contributions to Isotropic shielding for atom   26 (    32.4307 ppm):
                         Standard Origin              Atomic Origin
 NLMO      Total    Paramagnetic  Diamagnetic   Paramagnetic  Diamagnetic
   12      -0.0698        0.2175      -0.2872        -1.0533       0.9835
   23       1.5797       -1.1500       2.7297         0.6509       0.9288
   24      -0.1300        0.3544      -0.4844        -1.0244       0.8944
   26      26.3467        0.2865      26.0603         0.4081      25.9386
   27       1.9688        0.8673       1.1014         0.1635       1.8053
   28       1.8590        2.0402      -0.1812         0.0258       1.8332
 Sum       31.5545        2.6159      28.9386        -0.8294      32.3839

 Contributions to Isotropic shielding for atom   27 (    32.5637 ppm):
                         Standard Origin              Atomic Origin
 NLMO      Total    Paramagnetic  Diamagnetic   Paramagnetic  Diamagnetic
   23       1.6021       -0.8280       2.4301         0.5996       1.0025
   26       2.0265        0.8383       1.1882         0.1876       1.8389
   27      26.4536        0.2684      26.1852         0.4380      26.0156
   28       1.8720        2.2585      -0.3865         0.0211       1.8509
 Sum       31.9542        2.5372      29.4170         1.2463      30.7079

 Contributions to Isotropic shielding for atom   28 (    32.4057 ppm):
                         Standard Origin              Atomic Origin
 NLMO      Total    Paramagnetic  Diamagnetic   Paramagnetic  Diamagnetic
   23       1.2824        0.2277       1.0547         0.2602       1.0222
   24      -0.1727        0.7752      -0.9478        -1.1722       0.9995
   26       1.9550        1.7125       0.2424         0.1026       1.8524
   27       1.8811        1.9470      -0.0659         0.0415       1.8396
   28      26.3926        0.0304      26.3623         0.4637      25.9289
 Sum       31.3384        4.6927      26.6457        -0.3042      31.6426

 Contributions to Isotropic shielding for atom   29 (    32.6404 ppm):
                         Standard Origin              Atomic Origin
 NLMO      Total    Paramagnetic  Diamagnetic   Paramagnetic  Diamagnetic
   12      -0.0755        0.0360      -0.1115        -1.0865       1.0110
   23      -0.1224        0.1253      -0.2477        -1.0153       0.8929
   24       1.4343       -0.4317       1.8660         0.5363       0.8980
   29      26.3376        0.2300      26.1076         0.3765      25.9612
   30       2.1460        0.3273       1.8187         0.2865       1.8595
   31       1.9542        2.0837      -0.1296         0.1176       1.8366
 Sum       31.6742        2.3707      29.3035        -0.7851      32.4592

 Contributions to Isotropic shielding for atom   30 (    31.8760 ppm):
                         Standard Origin              Atomic Origin
 NLMO      Total    Paramagnetic  Diamagnetic   Paramagnetic  Diamagnetic
   24       1.4913       -0.7341       2.2254         0.5082       0.9831
   29       2.0881        0.3875       1.7006         0.2553       1.8328
   30      25.9255        0.3375      25.5880         0.3980      25.5275
   31       1.9143        1.7985       0.1158         0.0397       1.8746
   43      -0.8091       -0.0592      -0.7498         0.5067      -1.3158
 Sum       30.6101        1.7301      28.8800         1.7079      28.9023

 Contributions to Isotropic shielding for atom   31 (    32.5738 ppm):
                         Standard Origin              Atomic Origin
 NLMO      Total    Paramagnetic  Diamagnetic   Paramagnetic  Diamagnetic
   23      -0.1527        0.5459      -0.6986        -1.1437       0.9910
   24       1.1364        0.9350       0.2014         0.1295       1.0068
   28      -0.1021       -1.0869       0.9848        -0.9897       0.8876
   29       2.0036        1.7441       0.2594         0.1382       1.8654
   30       2.0737        1.4749       0.5988         0.1633       1.9104
   31      26.4322       -0.0367      26.4689         0.4069      26.0253
 Sum       31.3911        3.5763      27.8147        -1.2955      32.6865
 
 1\1\GINC-COMPUTE-10-4\SP\RHF\STO-3G\C10H20O1\YTSAI.IQUIR\03-Aug-2021\0
 \\# rhf/STO-3G nmr pop=nbo\\comment\\0,1\C,0,0.067472149,0.459912682,-
 3.013495047\C,0,-1.077866539,-0.038965788,-2.128516324\C,0,0.18137031,
 -1.345218434,-0.289443862\C,0,-0.476149638,1.074932443,0.095043481\C,0
 ,-0.28179089,-0.302815942,0.753123594\C,0,-1.466329196,0.999937939,-1.
 068662185\C,0,-0.779459753,-1.404478422,-1.484721322\O,0,1.497215097,-
 1.065708082,-0.747065467\C,0,0.620060808,-0.267682853,2.023304688\C,0,
 -0.156046333,0.298649656,3.221368805\C,0,1.932061683,0.509062149,1.877
 572337\H,0,0.963912707,0.713141627,-2.442089587\H,0,0.340879621,-0.296
 414442,-3.756724849\H,0,-0.237933176,1.360854961,-3.556997765\H,0,-1.9
 41710344,-0.17427142,-2.79332613\H,0,0.212469992,-2.333843099,0.184184
 192\H,0,0.478776618,1.470672009,-0.267659756\H,0,-0.857921198,1.794112
 09,0.828138677\H,0,-1.275203251,-0.640629551,1.084987102\H,0,-1.568721
 959,1.990517277,-1.527665934\H,0,-2.455690536,0.741408848,-0.66905456\
 H,0,-0.386510439,-2.087515363,-2.247751422\H,0,-1.729780317,-1.8313582
 15,-1.137912488\H,0,1.744523357,-1.761623088,-1.379407916\H,0,0.876384
 51,-1.304509671,2.279027189\H,0,-0.41975696,1.350618789,3.07381643\H,0
 ,-1.079763863,-0.264606824,3.390805263\H,0,0.442628248,0.22988623,4.13
 6313357\H,0,1.756370438,1.573742518,1.693531666\H,0,2.555334139,0.1190
 71729,1.07048142\H,0,2.521174714,0.433120248,2.798796411\\Version=EM64
 L-G09RevC.01\State=1-A\HF=-459.619071\RMSD=7.381e-09\Dipole=-0.3026024
 ,-0.3937604,-0.1672934\Quadrupole=-1.4557707,1.6470218,-0.1912511,-0.7
 367975,-0.4881374,1.1484689\PG=C01 [X(C10H20O1)]\\@


 HERE WE GO......
 SLIDING DOWN THE RAZOR BLADE OF LIFE......
                                 TOM LEHRER
 Job cpu time:  0 days  0 hours  0 minutes 27.1 seconds.
 File lengths (MBytes):  RWF=      5 Int=      0 D2E=      0 Chk=      1 Scr=      1
 Normal termination of Gaussian 09 at Tue Aug  3 16:35:01 2021.
