 Entering Gaussian System, Link 0=g09
 Input=/home/ytsai.iquir/menthol/02_menthol_M0031_MMFF_NMR_rhf_STO-3G_nbo.gjc
 Output=/home/ytsai.iquir/menthol/02_menthol_M0031_MMFF_NMR_rhf_STO-3G_nbo.log
 Initial command:
 /share/apps/Gaussian09/EM64T.SSE4.2-enabled/g09/l1.exe /tmp/Gau-30530.inp -scrdir=/tmp/
 Entering Link 1 = /share/apps/Gaussian09/EM64T.SSE4.2-enabled/g09/l1.exe PID=     30531.
  
 Copyright (c) 1988,1990,1992,1993,1995,1998,2003,2009,2011,
            Gaussian, Inc.  All Rights Reserved.
  
 This is part of the Gaussian(R) 09 program.  It is based on
 the Gaussian(R) 03 system (copyright 2003, Gaussian, Inc.),
 the Gaussian(R) 98 system (copyright 1998, Gaussian, Inc.),
 the Gaussian(R) 94 system (copyright 1995, Gaussian, Inc.),
 the Gaussian 92(TM) system (copyright 1992, Gaussian, Inc.),
 the Gaussian 90(TM) system (copyright 1990, Gaussian, Inc.),
 the Gaussian 88(TM) system (copyright 1988, Gaussian, Inc.),
 the Gaussian 86(TM) system (copyright 1986, Carnegie Mellon
 University), and the Gaussian 82(TM) system (copyright 1983,
 Carnegie Mellon University). Gaussian is a federally registered
 trademark of Gaussian, Inc.
  
 This software contains proprietary and confidential information,
 including trade secrets, belonging to Gaussian, Inc.
  
 This software is provided under written license and may be
 used, copied, transmitted, or stored only in accord with that
 written license.
  
 The following legend is applicable only to US Government
 contracts under FAR:
  
                    RESTRICTED RIGHTS LEGEND
  
 Use, reproduction and disclosure by the US Government is
 subject to restrictions as set forth in subparagraphs (a)
 and (c) of the Commercial Computer Software - Restricted
 Rights clause in FAR 52.227-19.
  
 Gaussian, Inc.
 340 Quinnipiac St., Bldg. 40, Wallingford CT 06492
  
  
 ---------------------------------------------------------------
 Warning -- This program may not be used in any manner that
 competes with the business of Gaussian, Inc. or will provide
 assistance to any competitor of Gaussian, Inc.  The licensee
 of this program is prohibited from giving any competitor of
 Gaussian, Inc. access to this program.  By using this program,
 the user acknowledges that Gaussian, Inc. is engaged in the
 business of creating and licensing software in the field of
 computational chemistry and represents and warrants to the
 licensee that it is not a competitor of Gaussian, Inc. and that
 it will not use this program in any manner prohibited above.
 ---------------------------------------------------------------
  

 Cite this work as:
 Gaussian 09, Revision C.01,
 M. J. Frisch, G. W. Trucks, H. B. Schlegel, G. E. Scuseria, 
 M. A. Robb, J. R. Cheeseman, G. Scalmani, V. Barone, B. Mennucci, 
 G. A. Petersson, H. Nakatsuji, M. Caricato, X. Li, H. P. Hratchian, 
 A. F. Izmaylov, J. Bloino, G. Zheng, J. L. Sonnenberg, M. Hada, 
 M. Ehara, K. Toyota, R. Fukuda, J. Hasegawa, M. Ishida, T. Nakajima, 
 Y. Honda, O. Kitao, H. Nakai, T. Vreven, J. A. Montgomery, Jr., 
 J. E. Peralta, F. Ogliaro, M. Bearpark, J. J. Heyd, E. Brothers, 
 K. N. Kudin, V. N. Staroverov, T. Keith, R. Kobayashi, J. Normand, 
 K. Raghavachari, A. Rendell, J. C. Burant, S. S. Iyengar, J. Tomasi, 
 M. Cossi, N. Rega, J. M. Millam, M. Klene, J. E. Knox, J. B. Cross, 
 V. Bakken, C. Adamo, J. Jaramillo, R. Gomperts, R. E. Stratmann, 
 O. Yazyev, A. J. Austin, R. Cammi, C. Pomelli, J. W. Ochterski, 
 R. L. Martin, K. Morokuma, V. G. Zakrzewski, G. A. Voth, 
 P. Salvador, J. J. Dannenberg, S. Dapprich, A. D. Daniels, 
 O. Farkas, J. B. Foresman, J. V. Ortiz, J. Cioslowski, 
 and D. J. Fox, Gaussian, Inc., Wallingford CT, 2010.
 
 ******************************************
 Gaussian 09:  EM64L-G09RevC.01 23-Sep-2011
                 3-Aug-2021 
 ******************************************
 %nprocshared=4
 Will use up to    4 processors via shared memory.
 ------------------------
 # rhf/STO-3G nmr pop=nbo
 ------------------------
 1/38=1/1;
 2/12=2,17=6,18=5,40=1/2;
 3/6=3,11=1,16=1,25=1,30=1,116=1/1,2,8,3;
 4//1;
 5/5=2,38=5/2;
 8/6=1,10=90,11=11/1;
 10/13=100,45=16/2;
 6/7=2,8=2,9=2,10=2,28=1,64=1/1,7;
 99/9=1/99;
 -------
 comment
 -------
 Charge =  0 Multiplicity = 1
 Symbolic Z-Matrix:
 6                    -0.99656  -0.0477   -3.23879 
 6                    -1.19893  -0.25542  -1.73872 
 6                    -0.422    -1.55458   0.29116 
 6                    -1.13575   0.87335   0.53275 
 6                    -0.30092  -0.26874   1.14536 
 6                    -0.97636   1.05236  -0.9763 
 6                    -0.2697   -1.35032  -1.21444 
 8                     0.49986  -2.55476   0.7102 
 6                     1.14487   0.11644   1.59602 
 6                     1.11801   1.13421   2.74786 
 6                     2.07645   0.63515   0.50411 
 1                     0.02595   0.27512  -3.46248 
 1                    -1.18645  -0.97576  -3.78823 
 1                    -1.68357   0.71449  -3.62128 
 1                    -2.23738  -0.57637  -1.58159 
 1                    -1.42538  -1.96968   0.45777 
 1                    -0.93785   1.82559   1.03409 
 1                    -2.19463   0.65327   0.72784 
 1                    -0.80113  -0.52402   2.09317 
 1                     0.01322   1.45646  -1.20958 
 1                    -1.69925   1.80329  -1.31909 
 1                     0.77153  -1.13254  -1.47236 
 1                    -0.48889  -2.29844  -1.72369 
 1                     0.32676  -2.73563   1.64988 
 1                     1.613    -0.78502   2.01201 
 1                     0.77053   2.11804   2.41857 
 1                     0.46721   0.7929    3.55956 
 1                     2.12247   1.26461   3.16608 
 1                     1.73977   1.59418   0.10215 
 1                     2.18388  -0.07797  -0.3138 
 1                     3.08126   0.79748   0.91178 
 
                          Input orientation:                          
 ---------------------------------------------------------------------
 Center     Atomic      Atomic             Coordinates (Angstroms)
 Number     Number       Type             X           Y           Z
 ---------------------------------------------------------------------
      1          6           0       -0.996562   -0.047703   -3.238786
      2          6           0       -1.198931   -0.255419   -1.738718
      3          6           0       -0.421996   -1.554580    0.291155
      4          6           0       -1.135748    0.873351    0.532748
      5          6           0       -0.300925   -0.268735    1.145363
      6          6           0       -0.976363    1.052364   -0.976298
      7          6           0       -0.269697   -1.350321   -1.214439
      8          8           0        0.499865   -2.554756    0.710195
      9          6           0        1.144868    0.116441    1.596016
     10          6           0        1.118008    1.134215    2.747861
     11          6           0        2.076453    0.635149    0.504110
     12          1           0        0.025946    0.275115   -3.462484
     13          1           0       -1.186449   -0.975757   -3.788231
     14          1           0       -1.683572    0.714489   -3.621277
     15          1           0       -2.237384   -0.576370   -1.581593
     16          1           0       -1.425380   -1.969677    0.457767
     17          1           0       -0.937846    1.825592    1.034091
     18          1           0       -2.194629    0.653270    0.727837
     19          1           0       -0.801133   -0.524020    2.093168
     20          1           0        0.013216    1.456463   -1.209577
     21          1           0       -1.699249    1.803291   -1.319089
     22          1           0        0.771527   -1.132545   -1.472363
     23          1           0       -0.488889   -2.298436   -1.723690
     24          1           0        0.326760   -2.735632    1.649884
     25          1           0        1.613001   -0.785022    2.012012
     26          1           0        0.770525    2.118037    2.418568
     27          1           0        0.467209    0.792896    3.559564
     28          1           0        2.122469    1.264607    3.166084
     29          1           0        1.739765    1.594175    0.102148
     30          1           0        2.183881   -0.077966   -0.313804
     31          1           0        3.081260    0.797482    0.911780
 ---------------------------------------------------------------------
                    Distance matrix (angstroms):
                    1          2          3          4          5
     1  C    0.000000
     2  C    1.527842   0.000000
     3  C    3.880887   2.532160   0.000000
     4  C    3.884865   2.537257   2.542175   0.000000
     5  C    4.444494   3.020681   1.548459   1.541619   0.000000
     6  C    2.515831   1.530071   2.951256   1.527962   2.589008
     7  C    2.514583   1.528776   1.527000   2.957604   2.596048
     8  O    4.911116   3.764310   1.423297   3.802451   2.461001
     9  C    5.290367   4.092937   2.636293   2.627673   1.562616
    10  C    6.458195   5.237240   3.954318   3.170835   2.559226
    11  C    4.890703   4.068357   3.329041   3.221148   2.623002
    12  H    1.095343   2.180174   4.199791   4.203486   4.651330
    13  H    1.095094   2.172451   4.190563   4.700280   5.062053
    14  H    1.095089   2.172470   4.695463   4.193003   5.059575
    15  H    2.136683   1.098218   2.785626   2.790292   3.358691
    16  H    4.188361   2.795444   1.098565   2.858727   2.151835
    17  H    4.665850   3.476672   3.499088   1.094200   2.191862
    18  H    4.202478   2.810876   2.864876   1.098965   2.147216
    19  H    5.356753   3.861831   2.110224   2.121208   1.101686
    20  H    2.720267   2.163292   3.392342   2.166987   2.936109
    21  H    2.757750   2.159790   3.936947   2.147469   3.510289
    22  H    2.724568   2.173246   2.170854   3.417862   2.957838
    23  H    2.760262   2.162938   2.148813   3.945905   3.519443
    24  H    5.733693   4.467865   1.949786   4.051134   2.595017
    25  H    5.909682   4.717565   2.773947   3.534692   2.163503
    26  H    6.310205   5.176397   4.408640   2.956254   2.909595
    27  H    7.004770   5.652149   4.121144   3.426013   2.746900
    28  H    7.243816   6.115494   4.763122   4.207555   3.508175
    29  H    4.620075   3.930105   3.824081   2.995594   2.953498
    30  H    4.321071   3.674954   3.055644   3.555502   2.887875
    31  H    5.879640   5.143324   4.264994   4.234688   3.553950
                    6          7          8          9         10
     6  C    0.000000
     7  C    2.515747   0.000000
     8  O    4.246742   2.397312   0.000000
     9  C    3.463001   3.471462   2.887214   0.000000
    10  C    4.273459   4.878367   4.259423   1.537313   0.000000
    11  C    3.418385   3.521353   3.564211   1.526161   2.490402
    12  H    2.791032   2.789831   5.063992   5.183202   6.363885
    13  H    3.473381   2.757742   5.056949   5.968087   7.244515
    14  H    2.758663   3.472082   5.849531   5.964721   6.970721
    15  H    2.146935   2.146065   4.081524   4.692209   5.738373
    16  H    3.375039   2.124965   2.027956   3.500526   4.620336
    17  H    2.154305   3.948257   4.621620   2.752210   2.764335
    18  H    2.132492   3.390010   4.189515   3.492014   3.909651
    19  H    3.455041   3.450429   2.780125   2.108145   2.619441
    20  H    1.094066   2.821010   4.473503   3.308723   4.121374
    21  H    1.097252   3.464078   5.286461   4.408209   4.992463
    22  H    2.841658   1.094577   2.619169   3.333812   4.802971
    23  H    3.467576   1.098318   2.639532   4.418285   5.861738
    24  H    4.789976   3.237158   0.972469   2.967579   4.099676
    25  H    4.360136   3.778108   2.462876   1.097650   2.114229
    26  H    3.963886   5.129358   4.982649   2.196158   1.094114
    27  H    4.767103   5.284649   4.396219   2.184567   1.094943
    28  H    5.177560   5.634651   4.822009   2.176947   1.095835
    29  H    2.972197   3.800184   4.372723   2.183860   2.756437
    30  H    3.421065   2.906902   3.165276   2.182832   3.461107
    31  H    4.482645   4.512514   4.235769   2.163703   2.709049
                   11         12         13         14         15
    11  C    0.000000
    12  H    4.479739   0.000000
    13  H    5.627232   1.772200   0.000000
    14  H    5.582374   1.772207   1.769727   0.000000
    15  H    4.942381   3.063566   2.476535   2.476557   0.000000
    16  H    4.364643   4.744871   4.367318   4.889786   2.599932
    17  H    3.283905   4.853046   5.582486   4.843874   3.781537
    18  H    4.276976   4.757388   4.905611   4.379465   2.616736
    19  H    3.485582   5.673442   5.911293   5.913331   3.945811
    20  H    2.805035   2.543881   3.742238   3.040710   3.055488
    21  H    4.352532   3.147342   3.752697   2.546725   2.453830
    22  H    2.955337   2.549113   3.036692   3.749250   3.061830
    23  H    4.488874   3.148273   2.549196   3.755772   2.458239
    24  H    3.966912   5.940656   5.912703   6.612860   4.656146
    25  H    2.122603   5.797649   6.443300   6.697005   5.270958
    26  H    2.751282   6.207860   7.205946   6.668754   5.684069
    27  H    3.456928   7.054925   7.736460   7.496432   5.968351
    28  H    2.735771   7.022279   8.020640   7.801080   6.703578
    29  H    1.093006   4.169376   5.504755   5.133906   4.833629
    30  H    1.090439   3.833475   4.923088   5.150200   4.626368
    31  H    1.096442   5.361156   6.591496   6.577167   6.032608
                   16         17         18         19         20
    16  H    0.000000
    17  H    3.869614   0.000000
    18  H    2.746731   1.745747   0.000000
    19  H    2.270274   2.580894   2.278589   0.000000
    20  H    4.072841   2.464716   3.045204   3.936191   0.000000
    21  H    4.179415   2.473396   2.399553   4.226876   1.750663
    22  H    3.041807   4.237315   4.102205   3.944182   2.710544
    23  H    2.396633   4.981418   4.199059   4.220717   3.823046
    24  H    2.253404   4.773175   4.323451   2.521879   5.084141
    25  H    3.612596   3.778685   4.268001   2.429559   4.238184
    26  H    5.037475   2.218295   3.714331   3.091353   3.764922
    27  H    4.564521   3.068983   3.888902   2.343775   4.836439
    28  H    5.512061   3.771688   4.995610   3.591349   4.861292
    29  H    4.779713   2.844587   4.093439   3.860968   2.172685
    30  H    4.147368   3.896863   4.559723   3.860413   2.805114
    31  H    5.307835   4.150324   5.281064   4.267907   3.787784
                   21         22         23         24         25
    21  H    0.000000
    22  H    3.840229   0.000000
    23  H    4.295676   1.735256   0.000000
    24  H    5.789761   3.537814   3.498203   0.000000
    25  H    5.363450   3.601349   4.545748   2.364410   0.000000
    26  H    4.490984   5.070072   6.184631   4.934158   3.050050
    27  H    5.432835   5.396315   6.195420   4.014613   2.489495
    28  H    5.917135   5.393196   6.589715   4.639542   2.406745
    29  H    3.726992   3.294172   4.842830   4.810333   3.053560
    30  H    4.430398   2.109298   3.749928   3.790535   2.497049
    31  H    5.370447   3.839793   5.410765   4.540371   2.422935
                   26         27         28         29         30
    26  H    0.000000
    27  H    1.774788   0.000000
    28  H    1.764901   1.765566   0.000000
    29  H    2.565085   3.770302   3.105282   0.000000
    30  H    3.779664   4.325315   3.730401   1.779413   0.000000
    31  H    3.058394   3.720759   2.493867   1.757792   1.753213
                   31
    31  H    0.000000
 Stoichiometry    C10H20O
 Framework group  C1[X(C10H20O)]
 Deg. of freedom    87
 Full point group                 C1      NOp   1
 Largest Abelian subgroup         C1      NOp   1
 Largest concise Abelian subgroup C1      NOp   1
                         Standard orientation:                         
 ---------------------------------------------------------------------
 Center     Atomic      Atomic             Coordinates (Angstroms)
 Number     Number       Type             X           Y           Z
 ---------------------------------------------------------------------
      1          6           0       -3.317280   -0.557368    0.628684
      2          6           0       -2.109334   -0.222496   -0.244831
      3          6           0       -0.139873    1.342141   -0.536321
      4          6           0        0.077672   -1.108150   -1.177728
      5          6           0        0.840949    0.165771   -0.764058
      6          6           0       -1.161287   -1.419724   -0.339532
      7          6           0       -1.375588    1.005216    0.295074
      8          8           0        0.510150    2.464871    0.049104
      9          6           0        1.938188   -0.028521    0.331427
     10          6           0        3.080185   -0.924430   -0.175053
     11          6           0        1.459121   -0.558982    1.679860
     12          1           0       -3.014126   -0.798610    1.653221
     13          1           0       -4.011785    0.288253    0.671336
     14          1           0       -3.861533   -1.417705    0.225166
     15          1           0       -2.478239    0.008710   -1.253065
     16          1           0       -0.497233    1.670964   -1.521722
     17          1           0        0.736461   -1.981713   -1.190267
     18          1           0       -0.253373   -0.975058   -2.217160
     19          1           0        1.420902    0.463531   -1.652149
     20          1           0       -0.870518   -1.745641    0.663570
     21          1           0       -1.688008   -2.268492   -0.793536
     22          1           0       -1.108313    0.866422    1.347404
     23          1           0       -2.050354    1.871811    0.292480
     24          1           0        1.239330    2.720343   -0.541426
     25          1           0        2.395482    0.951506    0.519216
     26          1           0        2.764553   -1.965513   -0.291705
     27          1           0        3.460901   -0.569833   -1.138492
     28          1           0        3.917153   -0.913104    0.532203
     29          1           0        1.080771   -1.581673    1.604924
     30          1           0        0.689047    0.076389    2.118434
     31          1           0        2.291171   -0.580297    2.393599
 ---------------------------------------------------------------------
 Rotational constants (GHZ):      1.5185095      0.7960225      0.6669404
 Standard basis: STO-3G (5D, 7F)
 There are    75 symmetry adapted basis functions of A   symmetry.
 Integral buffers will be    131072 words long.
 Raffenetti 1 integral format.
 Two-electron integral symmetry is turned on.
    75 basis functions,   225 primitive gaussians,    75 cartesian basis functions
    44 alpha electrons       44 beta electrons
       nuclear repulsion energy       698.5654745761 Hartrees.
 NAtoms=   31 NActive=   31 NUniq=   31 SFac= 1.00D+00 NAtFMM=   60 NAOKFM=F Big=F
 One-electron integrals computed using PRISM.
 NBasis=    75 RedAO= T  NBF=    75
 NBsUse=    75 1.00D-06 NBFU=    75
 Harris functional with IExCor=  205 diagonalized for initial guess.
 ExpMin= 1.69D-01 ExpMax= 1.31D+02 ExpMxC= 1.31D+02 IAcc=1 IRadAn=         1 AccDes= 0.00D+00
 HarFok:  IExCor=  205 AccDes= 0.00D+00 IRadAn=         1 IDoV= 1
 ScaDFX=  1.000000  1.000000  1.000000  1.000000
 FoFCou: FMM=F IPFlag=           0 FMFlag=      100000 FMFlg1=           0
         NFxFlg=           0 DoJE=T BraDBF=F KetDBF=T FulRan=T
         Omega=  0.000000  0.000000  1.000000  0.000000  0.000000 ICntrl=     500 IOpCl=  0
         NMat0=    1 NMatS0=    1 NMatT0=    0 NMatD0=    1 NMtDS0=    0 NMtDT0=    0
         I1Cent=           4 NGrid=           0.
 Petite list used in FoFCou.
 Initial guess orbital symmetries:
       Occupied  (A) (A) (A) (A) (A) (A) (A) (A) (A) (A) (A) (A)
                 (A) (A) (A) (A) (A) (A) (A) (A) (A) (A) (A) (A)
                 (A) (A) (A) (A) (A) (A) (A) (A) (A) (A) (A) (A)
                 (A) (A) (A) (A) (A) (A) (A) (A)
       Virtual   (A) (A) (A) (A) (A) (A) (A) (A) (A) (A) (A) (A)
                 (A) (A) (A) (A) (A) (A) (A) (A) (A) (A) (A) (A)
                 (A) (A) (A) (A) (A) (A) (A)
 The electronic state of the initial guess is 1-A.
 Requested convergence on RMS density matrix=1.00D-08 within 128 cycles.
 Requested convergence on MAX density matrix=1.00D-06.
 Requested convergence on             energy=1.00D-06.
 No special actions if energy rises.
 Keep R1 ints in memory in canonical form, NReq=4898789.
 SCF Done:  E(RHF) =  -459.613585289     A.U. after   10 cycles
             Convg  =    0.8704D-08             -V/T =  2.0089
 Range of M.O.s used for correlation:     1    75
 NBasis=    75 NAE=    44 NBE=    44 NFC=     0 NFV=     0
 NROrb=     75 NOA=    44 NOB=    44 NVA=    31 NVB=    31
          Differentiating once with respect to magnetic field using GIAOs.
          Electric field/nuclear overlap derivatives assumed to be zero.
          Keep R3 ints in memory in canonical form, NReq=4863575.
 FoFCou: FMM=F IPFlag=           0 FMFlag=           0 FMFlg1=           0
         NFxFlg=           0 DoJE=F BraDBF=F KetDBF=T FulRan=T
         Omega=  0.000000  0.000000  1.000000  0.000000  0.000000 ICntrl=    6100 IOpCl=  0
         NMat0=    1 NMatS0=    1 NMatT0=    0 NMatD0=    1 NMtDS0=    0 NMtDT0=    0
         I1Cent=           7 NGrid=          31.
 Symmetry not used in FoFCou.
          There are     3 degrees of freedom in the 1st order CPHF.  IDoFFX=0.
      3 vectors produced by pass  0 Test12= 4.55D-14 3.33D-08 XBig12= 6.47D+00 3.47D-01.
 AX will form     3 AO Fock derivatives at one time.
      3 vectors produced by pass  1 Test12= 4.55D-14 3.33D-08 XBig12= 1.02D-02 1.27D-02.
      3 vectors produced by pass  2 Test12= 4.55D-14 3.33D-08 XBig12= 7.29D-05 2.57D-03.
      3 vectors produced by pass  3 Test12= 4.55D-14 3.33D-08 XBig12= 1.64D-06 3.52D-04.
      3 vectors produced by pass  4 Test12= 4.55D-14 3.33D-08 XBig12= 2.04D-08 2.66D-05.
      3 vectors produced by pass  5 Test12= 4.55D-14 3.33D-08 XBig12= 2.77D-10 2.63D-06.
      3 vectors produced by pass  6 Test12= 4.55D-14 3.33D-08 XBig12= 3.29D-12 3.05D-07.
 Inverted reduced A of dimension    21 with in-core refinement.
 Calculating GIAO nuclear magnetic shielding tensors.
 SCF GIAO Magnetic shielding tensor (ppm):
      1  C    Isotropic =   221.0255   Anisotropy =    28.4224
   XX=   232.6009   YX=     4.3752   ZX=    -9.9706
   XY=     5.3658   YY=   213.1897   ZY=    -2.2425
   XZ=   -13.3080   YZ=    -2.5433   ZZ=   217.2858
   Eigenvalues:   210.9748   212.1279   239.9737
      2  C    Isotropic =   215.4608   Anisotropy =     7.1377
   XX=   219.2183   YX=     0.1326   ZX=    -2.1011
   XY=     0.0979   YY=   216.2905   ZY=     1.7072
   XZ=    -3.9354   YZ=     0.9475   ZZ=   210.8737
   Eigenvalues:   209.6426   216.5206   220.2193
      3  C    Isotropic =   188.0448   Anisotropy =    39.3026
   XX=   189.9210   YX=    15.4841   ZX=     4.3872
   XY=    12.9660   YY=   198.7246   ZY=    12.0560
   XZ=     6.2119   YZ=    14.6621   ZZ=   175.4887
   Eigenvalues:   169.3207   180.5672   214.2465
      4  C    Isotropic =   219.3513   Anisotropy =    14.1237
   XX=   223.7987   YX=     6.4349   ZX=    -3.7754
   XY=     8.0184   YY=   218.0930   ZY=     4.5312
   XZ=    -3.2580   YZ=     3.1307   ZZ=   216.1623
   Eigenvalues:   209.3011   219.9857   228.7671
      5  C    Isotropic =   210.8989   Anisotropy =    14.7626
   XX=   213.7167   YX=    -9.7179   ZX=     6.8599
   XY=    -2.3143   YY=   208.9680   ZY=     0.5732
   XZ=     5.9059   YZ=    -1.0625   ZZ=   210.0119
   Eigenvalues:   202.7257   209.2303   220.7406
      6  C    Isotropic =   217.4594   Anisotropy =    16.0977
   XX=   224.2147   YX=    -3.4539   ZX=    -5.7068
   XY=    -6.7720   YY=   216.6880   ZY=     0.7459
   XZ=    -3.9542   YZ=     1.4569   ZZ=   211.4756
   Eigenvalues:   209.7854   214.4017   228.1912
      7  C    Isotropic =   217.2412   Anisotropy =    19.8158
   XX=   222.1998   YX=     9.4710   ZX=    -3.8788
   XY=     9.7707   YY=   219.0302   ZY=     2.0110
   XZ=    -1.7591   YZ=     0.6206   ZZ=   210.4935
   Eigenvalues:   207.8056   213.4663   230.4517
      8  O    Isotropic =   359.9675   Anisotropy =    85.4528
   XX=   379.6535   YX=    15.5434   ZX=   -31.7254
   XY=    -1.1891   YY=   337.4141   ZY=   -17.8417
   XZ=   -49.5489   YZ=   -21.8787   ZZ=   362.8350
   Eigenvalues:   320.7377   342.2288   416.9361
      9  C    Isotropic =   214.9820   Anisotropy =    14.0046
   XX=   220.5922   YX=    -4.2298   ZX=     3.3736
   XY=    -4.6072   YY=   205.8211   ZY=    -1.3817
   XZ=     4.2357   YZ=     0.3642   ZZ=   218.5327
   Eigenvalues:   204.5794   216.0482   224.3184
     10  C    Isotropic =   220.4952   Anisotropy =    28.5872
   XX=   228.8024   YX=   -10.5616   ZX=    -8.8855
   XY=   -14.9808   YY=   214.2417   ZY=     3.3643
   XZ=    -7.3021   YZ=     2.0878   ZZ=   218.4416
   Eigenvalues:   206.5162   215.4161   239.5534
     11  C    Isotropic =   223.1198   Anisotropy =    19.2650
   XX=   221.3033   YX=     0.3193   ZX=    -3.7322
   XY=     1.9819   YY=   215.4394   ZY=    -7.1176
   XZ=    -5.9087   YZ=    -4.1245   ZZ=   232.6166
   Eigenvalues:   213.7516   219.6445   235.9631
     12  H    Isotropic =    32.6246   Anisotropy =    10.9804
   XX=    31.3293   YX=     0.7854   ZX=    -1.7390
   XY=     0.9080   YY=    27.9152   ZY=    -3.2335
   XZ=    -1.7801   YZ=    -3.1807   ZZ=    38.6292
   Eigenvalues:    26.9987    30.9301    39.9448
     13  H    Isotropic =    32.3840   Anisotropy =    14.0417
   XX=    38.2349   YX=    -5.3607   ZX=    -2.7256
   XY=    -5.0660   YY=    32.1145   ZY=     0.6103
   XZ=    -2.8525   YZ=     0.9088   ZZ=    26.8027
   Eigenvalues:    26.1098    29.2971    41.7452
     14  H    Isotropic =    32.4393   Anisotropy =    14.0116
   XX=    36.1697   YX=     6.5939   ZX=     0.3288
   XY=     6.5790   YY=    33.6321   ZY=     2.2696
   XZ=     0.1542   YZ=     2.0356   ZZ=    27.5161
   Eigenvalues:    26.2132    29.3244    41.7804
     15  H    Isotropic =    32.8367   Anisotropy =    11.9928
   XX=    33.6735   YX=    -0.7535   ZX=     4.6866
   XY=    -0.4636   YY=    27.7311   ZY=    -2.2100
   XZ=     4.9042   YZ=    -2.1549   ZZ=    37.1054
   Eigenvalues:    27.2018    30.4763    40.8319
     16  H    Isotropic =    31.8807   Anisotropy =    10.7052
   XX=    29.6619   YX=    -1.4976   ZX=     2.3424
   XY=    -0.4585   YY=    31.1053   ZY=    -4.3991
   XZ=     2.7969   YZ=    -5.4255   ZZ=    34.8748
   Eigenvalues:    27.4555    29.1690    39.0175
     17  H    Isotropic =    32.4129   Anisotropy =    12.3261
   XX=    34.3286   YX=    -4.5283   ZX=    -0.5033
   XY=    -4.6147   YY=    36.1923   ZY=     3.7455
   XZ=    -0.2649   YZ=     3.5911   ZZ=    26.7178
   Eigenvalues:    25.2954    31.3129    40.6303
     18  H    Isotropic =    32.6642   Anisotropy =    13.9067
   XX=    29.2925   YX=     1.3778   ZX=     1.9797
   XY=     1.3308   YY=    27.4018   ZY=     1.9588
   XZ=     1.8740   YZ=     2.0745   ZZ=    41.2982
   Eigenvalues:    26.6317    29.4255    41.9353
     19  H    Isotropic =    32.7911   Anisotropy =    12.2487
   XX=    32.9084   YX=     0.9684   ZX=    -4.4745
   XY=     0.8312   YY=    28.7562   ZY=    -3.7869
   XZ=    -4.9075   YZ=    -3.7247   ZZ=    36.7087
   Eigenvalues:    27.0553    30.3611    40.9569
     20  H    Isotropic =    32.8852   Anisotropy =     9.1641
   XX=    32.7280   YX=    -0.5280   ZX=     1.8155
   XY=    -0.4599   YY=    31.1607   ZY=    -5.1691
   XZ=     1.7630   YZ=    -5.3141   ZZ=    34.7668
   Eigenvalues:    27.3413    32.3196    38.9946
     21  H    Isotropic =    32.5721   Anisotropy =    14.3425
   XX=    32.5033   YX=     5.0539   ZX=     0.5504
   XY=     5.0143   YY=    37.6821   ZY=     4.6541
   XZ=     0.6065   YZ=     5.0400   ZZ=    27.5308
   Eigenvalues:    25.2679    30.3146    42.1337
     22  H    Isotropic =    32.4962   Anisotropy =     8.8174
   XX=    31.5943   YX=     0.4389   ZX=     0.7257
   XY=     0.7285   YY=    27.7082   ZY=     0.8710
   XZ=     0.5897   YZ=     1.3157   ZZ=    38.1861
   Eigenvalues:    27.5298    31.5843    38.3745
     23  H    Isotropic =    32.0443   Anisotropy =    13.9219
   XX=    34.3439   YX=    -5.3001   ZX=    -2.1545
   XY=    -5.0689   YY=    37.0356   ZY=     1.2333
   XZ=    -1.8436   YZ=     1.1044   ZZ=    24.7535
   Eigenvalues:    24.3519    30.4556    41.3256
     24  H    Isotropic =    34.8999   Anisotropy =    18.2920
   XX=    37.0069   YX=     8.1823   ZX=    -5.9157
   XY=     7.2814   YY=    37.0496   ZY=    -1.4780
   XZ=    -6.8518   YZ=    -3.0358   ZZ=    30.6433
   Eigenvalues:    26.0304    31.5748    47.0946
     25  H    Isotropic =    32.3086   Anisotropy =    11.3591
   XX=    32.9187   YX=     3.5460   ZX=     2.8350
   XY=     3.7499   YY=    37.3780   ZY=     0.9201
   XZ=     2.4359   YZ=     1.7053   ZZ=    26.6291
   Eigenvalues:    25.6708    31.3737    39.8813
     26  H    Isotropic =    32.5216   Anisotropy =     9.9776
   XX=    31.8566   YX=    -1.6835   ZX=    -0.0305
   XY=    -1.5251   YY=    38.3733   ZY=     2.3087
   XZ=    -0.0533   YZ=     2.2802   ZZ=    27.3350
   Eigenvalues:    26.8616    31.5300    39.1734
     27  H    Isotropic =    32.7016   Anisotropy =    13.0957
   XX=    34.8686   YX=    -0.4393   ZX=    -6.0743
   XY=    -0.4711   YY=    27.5266   ZY=    -1.5905
   XZ=    -6.0218   YZ=    -2.1274   ZZ=    35.7096
   Eigenvalues:    26.5092    30.1635    41.4320
     28  H    Isotropic =    32.4267   Anisotropy =    14.4627
   XX=    39.7108   YX=    -2.3153   ZX=     4.7269
   XY=    -2.5356   YY=    26.8785   ZY=    -0.4364
   XZ=     4.6624   YZ=    -0.0569   ZZ=    30.6908
   Eigenvalues:    26.3069    28.9046    42.0685
     29  H    Isotropic =    32.8291   Anisotropy =     8.8305
   XX=    31.0331   YX=     3.2270   ZX=     0.9315
   XY=     3.1734   YY=    36.2792   ZY=    -3.2186
   XZ=     0.8821   YZ=    -3.2661   ZZ=    31.1750
   Eigenvalues:    27.7603    32.0108    38.7161
     30  H    Isotropic =    32.4572   Anisotropy =     9.5568
   XX=    33.7584   YX=    -4.8246   ZX=    -2.2633
   XY=    -4.4212   YY=    28.5035   ZY=     1.5178
   XZ=    -2.5475   YZ=     2.0324   ZZ=    35.1097
   Eigenvalues:    25.8012    32.7420    38.8284
     31  H    Isotropic =    32.5374   Anisotropy =    14.8924
   XX=    33.4243   YX=    -0.7478   ZX=     6.3607
   XY=    -0.8404   YY=    26.3048   ZY=    -1.2934
   XZ=     6.2419   YZ=    -1.1054   ZZ=    37.8832
   Eigenvalues:    26.1762    28.9704    42.4657
 End of Minotr Frequency-dependent properties file   721 does not exist.
 End of Minotr Frequency-dependent properties file   722 does not exist.

 **********************************************************************

            Population analysis using the SCF density.

 **********************************************************************

 Orbital symmetries:
       Occupied  (A) (A) (A) (A) (A) (A) (A) (A) (A) (A) (A) (A)
                 (A) (A) (A) (A) (A) (A) (A) (A) (A) (A) (A) (A)
                 (A) (A) (A) (A) (A) (A) (A) (A) (A) (A) (A) (A)
                 (A) (A) (A) (A) (A) (A) (A) (A)
       Virtual   (A) (A) (A) (A) (A) (A) (A) (A) (A) (A) (A) (A)
                 (A) (A) (A) (A) (A) (A) (A) (A) (A) (A) (A) (A)
                 (A) (A) (A) (A) (A) (A) (A)
 The electronic state is 1-A.
 Alpha  occ. eigenvalues --  -20.23976 -11.08499 -11.04673 -11.04642 -11.04264
 Alpha  occ. eigenvalues --  -11.03824 -11.03496 -11.03436 -11.03081 -11.03051
 Alpha  occ. eigenvalues --  -11.02734  -1.27942  -1.08150  -1.03571  -0.97023
 Alpha  occ. eigenvalues --   -0.94831  -0.89126  -0.87980  -0.79808  -0.77688
 Alpha  occ. eigenvalues --   -0.73926  -0.68951  -0.61578  -0.61214  -0.60218
 Alpha  occ. eigenvalues --   -0.56969  -0.56052  -0.54553  -0.53817  -0.52507
 Alpha  occ. eigenvalues --   -0.50889  -0.50230  -0.49107  -0.47693  -0.47140
 Alpha  occ. eigenvalues --   -0.46614  -0.42778  -0.42722  -0.42154  -0.41463
 Alpha  occ. eigenvalues --   -0.39587  -0.38386  -0.36656  -0.33153
 Alpha virt. eigenvalues --    0.52143   0.56470   0.58046   0.59156   0.60079
 Alpha virt. eigenvalues --    0.62243   0.62454   0.63392   0.64771   0.66197
 Alpha virt. eigenvalues --    0.68776   0.70017   0.70601   0.71576   0.72361
 Alpha virt. eigenvalues --    0.73147   0.73944   0.74465   0.75023   0.75728
 Alpha virt. eigenvalues --    0.76970   0.78171   0.79310   0.80011   0.81112
 Alpha virt. eigenvalues --    0.81945   0.82894   0.83874   0.84141   0.85286
 Alpha virt. eigenvalues --    0.86098
          Condensed to atoms (all electrons):
              1          2          3          4          5          6
     1  C    4.738810   0.366164   0.000713   0.000731   0.000001  -0.024255
     2  C    0.366164   4.740895  -0.020308  -0.022116  -0.003122   0.364586
     3  C    0.000713  -0.020308   4.741807  -0.020885   0.352237  -0.004460
     4  C    0.000731  -0.022116  -0.020885   4.754073   0.358932   0.363129
     5  C    0.000001  -0.003122   0.352237   0.358932   4.797031  -0.019802
     6  C   -0.024255   0.364586  -0.004460   0.363129  -0.019802   4.756566
     7  C   -0.024304   0.364280   0.360828  -0.003911  -0.020681  -0.023827
     8  O   -0.000001   0.000232   0.268019   0.000205  -0.017042   0.000002
     9  C    0.000000   0.000029  -0.017731  -0.018520   0.357177  -0.000079
    10  C    0.000000   0.000000   0.000572  -0.001797  -0.021953   0.000017
    11  C    0.000001   0.000041  -0.000392  -0.001037  -0.019365  -0.000699
    12  H    0.382298  -0.020659   0.000008   0.000008   0.000001  -0.002226
    13  H    0.382377  -0.020297   0.000012  -0.000017   0.000000   0.001293
    14  H    0.382365  -0.020322  -0.000017   0.000013   0.000000  -0.002237
    15  H   -0.024098   0.381789  -0.001788  -0.001735   0.000063  -0.024317
    16  H    0.000002  -0.001540   0.376045  -0.000301  -0.027262   0.000069
    17  H   -0.000016   0.001245   0.001056   0.382813  -0.020137  -0.021862
    18  H    0.000004  -0.001815  -0.000612   0.381326  -0.022973  -0.024459
    19  H    0.000001   0.000022  -0.026054  -0.024138   0.379559   0.001244
    20  H   -0.002665  -0.022585   0.000069  -0.022334  -0.000918   0.382282
    21  H   -0.002028  -0.021572   0.000032  -0.021922   0.001155   0.382301
    22  H   -0.002670  -0.021223  -0.021972   0.000105  -0.001006  -0.001629
    23  H   -0.002032  -0.020907  -0.021762   0.000019   0.001117   0.001266
    24  H    0.000000  -0.000040  -0.041119  -0.000004  -0.002308   0.000000
    25  H    0.000000  -0.000001  -0.002338   0.001053  -0.022969  -0.000015
    26  H    0.000000   0.000000  -0.000005  -0.000730  -0.001167   0.000012
    27  H    0.000000   0.000000   0.000022   0.000035  -0.002675   0.000000
    28  H    0.000000   0.000000  -0.000012   0.000017   0.001139   0.000000
    29  H    0.000001   0.000001   0.000004   0.000099  -0.001217  -0.001137
    30  H    0.000002  -0.000010   0.000080   0.000018  -0.001525  -0.000051
    31  H    0.000000   0.000000  -0.000006  -0.000003   0.001091   0.000014
              7          8          9         10         11         12
     1  C   -0.024304  -0.000001   0.000000   0.000000   0.000001   0.382298
     2  C    0.364280   0.000232   0.000029   0.000000   0.000041  -0.020659
     3  C    0.360828   0.268019  -0.017731   0.000572  -0.000392   0.000008
     4  C   -0.003911   0.000205  -0.018520  -0.001797  -0.001037   0.000008
     5  C   -0.020681  -0.017042   0.357177  -0.021953  -0.019365   0.000001
     6  C   -0.023827   0.000002  -0.000079   0.000017  -0.000699  -0.002226
     7  C    4.764622  -0.018671  -0.000180  -0.000004  -0.000564  -0.002234
     8  O   -0.018671   7.843460  -0.001801   0.000003   0.000002   0.000000
     9  C   -0.000180  -0.001801   4.740302   0.363994   0.364179   0.000000
    10  C   -0.000004   0.000003   0.363994   4.746348  -0.027102   0.000000
    11  C   -0.000564   0.000002   0.364179  -0.027102   4.742649  -0.000001
    12  H   -0.002234   0.000000   0.000000   0.000000  -0.000001   0.629504
    13  H   -0.002229   0.000000   0.000000   0.000000   0.000000  -0.021644
    14  H    0.001296   0.000000   0.000000   0.000000   0.000000  -0.021683
    15  H   -0.024355   0.000001   0.000000   0.000000  -0.000002   0.001884
    16  H   -0.027023  -0.019632   0.001070  -0.000014  -0.000011  -0.000001
    17  H    0.000003  -0.000004  -0.002954  -0.000848   0.000004   0.000000
    18  H    0.000034  -0.000001   0.001154   0.000026  -0.000004  -0.000001
    19  H    0.001236  -0.000323  -0.026847  -0.004084   0.001230   0.000000
    20  H   -0.001704  -0.000001   0.000086   0.000012  -0.001283   0.000353
    21  H    0.001280   0.000000  -0.000009   0.000000   0.000011   0.000001
    22  H    0.380556  -0.000629   0.000074  -0.000001  -0.001150   0.000348
    23  H    0.381449  -0.000472  -0.000010   0.000000   0.000010  -0.000003
    24  H    0.002657   0.257213  -0.000390  -0.000011   0.000013   0.000000
    25  H    0.000023   0.000214   0.381516  -0.025335  -0.024939   0.000000
    26  H    0.000000   0.000000  -0.020091   0.382203  -0.002573   0.000000
    27  H    0.000000   0.000001  -0.020102   0.381889   0.001332   0.000000
    28  H    0.000000   0.000000  -0.019712   0.382642  -0.002086   0.000000
    29  H    0.000026   0.000000  -0.020834  -0.002568   0.382823   0.000000
    30  H   -0.001188   0.000051  -0.019754   0.001366   0.383889   0.000001
    31  H    0.000008   0.000000  -0.020076  -0.002597   0.381700   0.000000
             13         14         15         16         17         18
     1  C    0.382377   0.382365  -0.024098   0.000002  -0.000016   0.000004
     2  C   -0.020297  -0.020322   0.381789  -0.001540   0.001245  -0.001815
     3  C    0.000012  -0.000017  -0.001788   0.376045   0.001056  -0.000612
     4  C   -0.000017   0.000013  -0.001735  -0.000301   0.382813   0.381326
     5  C    0.000000   0.000000   0.000063  -0.027262  -0.020137  -0.022973
     6  C    0.001293  -0.002237  -0.024317   0.000069  -0.021862  -0.024459
     7  C   -0.002229   0.001296  -0.024355  -0.027023   0.000003   0.000034
     8  O    0.000000   0.000000   0.000001  -0.019632  -0.000004  -0.000001
     9  C    0.000000   0.000000   0.000000   0.001070  -0.002954   0.001154
    10  C    0.000000   0.000000   0.000000  -0.000014  -0.000848   0.000026
    11  C    0.000000   0.000000  -0.000002  -0.000011   0.000004  -0.000004
    12  H   -0.021644  -0.021683   0.001884  -0.000001   0.000000  -0.000001
    13  H    0.629559  -0.021608  -0.002292   0.000001   0.000000   0.000000
    14  H   -0.021608   0.630513  -0.002283   0.000000  -0.000001   0.000002
    15  H   -0.002292  -0.002283   0.652245   0.000309   0.000002   0.000346
    16  H    0.000001   0.000000   0.000309   0.671712  -0.000018   0.000148
    17  H    0.000000  -0.000001   0.000002  -0.000018   0.636218  -0.023717
    18  H    0.000000   0.000002   0.000346   0.000148  -0.023717   0.650752
    19  H    0.000000   0.000000  -0.000015  -0.005631  -0.000567  -0.005726
    20  H    0.000017  -0.000010   0.001921   0.000003  -0.002782   0.002023
    21  H    0.000013   0.000237  -0.002745  -0.000006  -0.001766  -0.003463
    22  H   -0.000019   0.000020   0.001892   0.002000  -0.000009   0.000004
    23  H    0.000253   0.000013  -0.002787  -0.003690   0.000002  -0.000006
    24  H    0.000000   0.000000   0.000000  -0.003889  -0.000001   0.000001
    25  H    0.000000   0.000000   0.000000   0.000049   0.000027  -0.000031
    26  H    0.000000   0.000000   0.000000   0.000000  -0.000608  -0.000011
    27  H    0.000000   0.000000   0.000000  -0.000001   0.000031  -0.000010
    28  H    0.000000   0.000000   0.000000   0.000000  -0.000006   0.000001
    29  H    0.000000   0.000000   0.000000  -0.000001   0.000015  -0.000004
    30  H    0.000000   0.000000   0.000000  -0.000003   0.000011  -0.000003
    31  H    0.000000   0.000000   0.000000   0.000001  -0.000009   0.000000
             19         20         21         22         23         24
     1  C    0.000001  -0.002665  -0.002028  -0.002670  -0.002032   0.000000
     2  C    0.000022  -0.022585  -0.021572  -0.021223  -0.020907  -0.000040
     3  C   -0.026054   0.000069   0.000032  -0.021972  -0.021762  -0.041119
     4  C   -0.024138  -0.022334  -0.021922   0.000105   0.000019  -0.000004
     5  C    0.379559  -0.000918   0.001155  -0.001006   0.001117  -0.002308
     6  C    0.001244   0.382282   0.382301  -0.001629   0.001266   0.000000
     7  C    0.001236  -0.001704   0.001280   0.380556   0.381449   0.002657
     8  O   -0.000323  -0.000001   0.000000  -0.000629  -0.000472   0.257213
     9  C   -0.026847   0.000086  -0.000009   0.000074  -0.000010  -0.000390
    10  C   -0.004084   0.000012   0.000000  -0.000001   0.000000  -0.000011
    11  C    0.001230  -0.001283   0.000011  -0.001150   0.000010   0.000013
    12  H    0.000000   0.000353   0.000001   0.000348  -0.000003   0.000000
    13  H    0.000000   0.000017   0.000013  -0.000019   0.000253   0.000000
    14  H    0.000000  -0.000010   0.000237   0.000020   0.000013   0.000000
    15  H   -0.000015   0.001921  -0.002745   0.001892  -0.002787   0.000000
    16  H   -0.005631   0.000003  -0.000006   0.002000  -0.003690  -0.003889
    17  H   -0.000567  -0.002782  -0.001766  -0.000009   0.000002  -0.000001
    18  H   -0.005726   0.002023  -0.003463   0.000004  -0.000006   0.000001
    19  H    0.672114  -0.000012  -0.000032  -0.000012  -0.000034   0.000451
    20  H   -0.000012   0.640864  -0.023909   0.000253   0.000002   0.000000
    21  H   -0.000032  -0.023909   0.642894   0.000005  -0.000034   0.000000
    22  H   -0.000012   0.000253   0.000005   0.633211  -0.024670   0.000017
    23  H   -0.000034   0.000002  -0.000034  -0.024670   0.635503   0.000014
    24  H    0.000451   0.000000   0.000000   0.000017   0.000014   0.611785
    25  H   -0.002067  -0.000005   0.000001   0.000023  -0.000003  -0.000440
    26  H    0.000026   0.000002   0.000001   0.000000   0.000000   0.000000
    27  H    0.000148   0.000000   0.000000   0.000000   0.000000   0.000000
    28  H    0.000052   0.000000   0.000000   0.000000   0.000000   0.000001
    29  H   -0.000003  -0.000829   0.000027  -0.000004   0.000000   0.000000
    30  H    0.000009  -0.000138   0.000001  -0.000704   0.000019  -0.000003
    31  H   -0.000034   0.000026   0.000000   0.000018   0.000000   0.000000
             25         26         27         28         29         30
     1  C    0.000000   0.000000   0.000000   0.000000   0.000001   0.000002
     2  C   -0.000001   0.000000   0.000000   0.000000   0.000001  -0.000010
     3  C   -0.002338  -0.000005   0.000022  -0.000012   0.000004   0.000080
     4  C    0.001053  -0.000730   0.000035   0.000017   0.000099   0.000018
     5  C   -0.022969  -0.001167  -0.002675   0.001139  -0.001217  -0.001525
     6  C   -0.000015   0.000012   0.000000   0.000000  -0.001137  -0.000051
     7  C    0.000023   0.000000   0.000000   0.000000   0.000026  -0.001188
     8  O    0.000214   0.000000   0.000001   0.000000   0.000000   0.000051
     9  C    0.381516  -0.020091  -0.020102  -0.019712  -0.020834  -0.019754
    10  C   -0.025335   0.382203   0.381889   0.382642  -0.002568   0.001366
    11  C   -0.024939  -0.002573   0.001332  -0.002086   0.382823   0.383889
    12  H    0.000000   0.000000   0.000000   0.000000   0.000000   0.000001
    13  H    0.000000   0.000000   0.000000   0.000000   0.000000   0.000000
    14  H    0.000000   0.000000   0.000000   0.000000   0.000000   0.000000
    15  H    0.000000   0.000000   0.000000   0.000000   0.000000   0.000000
    16  H    0.000049   0.000000  -0.000001   0.000000  -0.000001  -0.000003
    17  H    0.000027  -0.000608   0.000031  -0.000006   0.000015   0.000011
    18  H   -0.000031  -0.000011  -0.000010   0.000001  -0.000004  -0.000003
    19  H   -0.002067   0.000026   0.000148   0.000052  -0.000003   0.000009
    20  H   -0.000005   0.000002   0.000000   0.000000  -0.000829  -0.000138
    21  H    0.000001   0.000001   0.000000   0.000000   0.000027   0.000001
    22  H    0.000023   0.000000   0.000000   0.000000  -0.000004  -0.000704
    23  H   -0.000003   0.000000   0.000000   0.000000   0.000000   0.000019
    24  H   -0.000440   0.000000   0.000000   0.000001   0.000000  -0.000003
    25  H    0.649337   0.001938  -0.001872  -0.003180   0.001966  -0.002059
    26  H    0.001938   0.631896  -0.021713  -0.022195   0.000387   0.000016
    27  H   -0.001872  -0.021713   0.634111  -0.021822   0.000015  -0.000038
    28  H   -0.003180  -0.022195  -0.021822   0.630706  -0.000015   0.000025
    29  H    0.001966   0.000387   0.000015  -0.000015   0.632524  -0.021353
    30  H   -0.002059   0.000016  -0.000038   0.000025  -0.021353   0.624040
    31  H   -0.002970  -0.000026   0.000036   0.000042  -0.022432  -0.022210
             31
     1  C    0.000000
     2  C    0.000000
     3  C   -0.000006
     4  C   -0.000003
     5  C    0.001091
     6  C    0.000014
     7  C    0.000008
     8  O    0.000000
     9  C   -0.020076
    10  C   -0.002597
    11  C    0.381700
    12  H    0.000000
    13  H    0.000000
    14  H    0.000000
    15  H    0.000000
    16  H    0.000001
    17  H   -0.000009
    18  H    0.000000
    19  H   -0.000034
    20  H    0.000026
    21  H    0.000000
    22  H    0.000018
    23  H    0.000000
    24  H    0.000000
    25  H   -0.002970
    26  H   -0.000026
    27  H    0.000036
    28  H    0.000042
    29  H   -0.022432
    30  H   -0.022210
    31  H    0.633612
 Mulliken atomic charges:
              1
     1  C   -0.171401
     2  C   -0.022766
     3  C    0.077955
     4  C   -0.103123
     5  C   -0.043380
     6  C   -0.101727
     7  C   -0.107422
     8  O   -0.310827
     9  C   -0.020491
    10  C   -0.172757
    11  C   -0.176675
    12  H    0.054046
    13  H    0.054581
    14  H    0.053702
    15  H    0.045966
    16  H    0.037614
    17  H    0.053876
    18  H    0.047014
    19  H    0.039488
    20  H    0.051262
    21  H    0.049529
    22  H    0.057173
    23  H    0.056744
    24  H    0.176051
    25  H    0.052077
    26  H    0.052637
    27  H    0.050612
    28  H    0.054404
    29  H    0.052510
    30  H    0.059511
    31  H    0.053816
 Sum of Mulliken atomic charges =   0.00000
 Mulliken charges with hydrogens summed into heavy atoms:
              1
     1  C   -0.009072
     2  C    0.023199
     3  C    0.115570
     4  C   -0.002233
     5  C   -0.003893
     6  C   -0.000935
     7  C    0.006495
     8  O   -0.134776
     9  C    0.031586
    10  C   -0.015103
    11  C   -0.010838
 Sum of Mulliken charges with hydrogens summed into heavy atoms =   0.00000
 Electronic spatial extent (au):  <R**2>=           2012.3027
 Charge=              0.0000 electrons
 Dipole moment (field-independent basis, Debye):
    X=              0.3486    Y=             -0.6688    Z=             -1.1694  Tot=              1.3915
 Quadrupole moment (field-independent basis, Debye-Ang):
   XX=            -66.4240   YY=            -70.1192   ZZ=            -66.9835
   XY=              1.4054   XZ=             -0.5064   YZ=             -2.9950
 Traceless Quadrupole moment (field-independent basis, Debye-Ang):
   XX=              1.4182   YY=             -2.2769   ZZ=              0.8587
   XY=              1.4054   XZ=             -0.5064   YZ=             -2.9950
 Octapole moment (field-independent basis, Debye-Ang**2):
  XXX=              6.1449  YYY=              5.8063  ZZZ=             -0.6812  XYY=              4.4596
  XXY=             10.9110  XXZ=             -1.0051  XZZ=              1.6318  YZZ=              6.4373
  YYZ=             -7.8005  XYZ=             -3.6228
 Hexadecapole moment (field-independent basis, Debye-Ang**3):
 XXXX=          -1564.3865 YYYY=           -628.3133 ZZZZ=           -377.0773 XXXY=             14.1251
 XXXZ=             11.9611 YYYX=             21.6300 YYYZ=            -17.7828 ZZZX=              0.1362
 ZZZY=             -1.6372 XXYY=           -348.0407 XXZZ=           -319.4114 YYZZ=           -164.2553
 XXYZ=             -2.0889 YYXZ=             -6.3111 ZZXY=              4.7901
 N-N= 6.985654745761D+02 E-N=-2.469100645438D+03  KE= 4.555455850296D+02
 ******************************Gaussian NBO Version 3.1******************************
             N A T U R A L   A T O M I C   O R B I T A L   A N D
          N A T U R A L   B O N D   O R B I T A L   A N A L Y S I S
 ******************************Gaussian NBO Version 3.1******************************
       /RESON  / : Allow strongly delocalized NBO set
       /NLMO   / : Form Natural Localized Molecular Orbitals
       /NMR /    : Analyze NMR Sheilding Tensor 

 Analyzing the SCF density

 Job title: comment                                                         

 Storage needed:     19864 in NPA,     23691 in NBO,     45933 in NLMO (  33549317 available)


 NATURAL POPULATIONS:  Natural atomic orbital occupancies 
                                                          
   NAO  Atom  No  lang   Type(AO)    Occupancy      Energy
 ----------------------------------------------------------
     1    C    1  S      Cor( 1S)     1.99997     -10.96435
     2    C    1  S      Val( 2S)     1.07949      -0.18056
     3    C    1  px     Val( 2p)     1.00432       0.08694
     4    C    1  py     Val( 2p)     1.02704       0.08503
     5    C    1  pz     Val( 2p)     1.01564       0.08729

     6    C    2  S      Cor( 1S)     1.99997     -10.98866
     7    C    2  S      Val( 2S)     1.07710      -0.18928
     8    C    2  px     Val( 2p)     0.95952       0.10832
     9    C    2  py     Val( 2p)     0.96001       0.10919
    10    C    2  pz     Val( 2p)     0.98753       0.10358

    11    C    3  S      Cor( 1S)     1.99989     -11.03419
    12    C    3  S      Val( 2S)     1.08699      -0.21545
    13    C    3  px     Val( 2p)     0.93616       0.09558
    14    C    3  py     Val( 2p)     0.87411       0.11410
    15    C    3  pz     Val( 2p)     0.95729       0.09503

    16    C    4  S      Cor( 1S)     1.99995     -10.97684
    17    C    4  S      Val( 2S)     1.08373      -0.19025
    18    C    4  px     Val( 2p)     0.98816       0.09650
    19    C    4  py     Val( 2p)     0.99071       0.09745
    20    C    4  pz     Val( 2p)     1.00265       0.08880

    21    C    5  S      Cor( 1S)     1.99995     -10.98876
    22    C    5  S      Val( 2S)     1.10543      -0.21490
    23    C    5  px     Val( 2p)     0.96643       0.10697
    24    C    5  py     Val( 2p)     0.96494       0.10215
    25    C    5  pz     Val( 2p)     0.98472       0.09435

    26    C    6  S      Cor( 1S)     1.99996     -10.97255
    27    C    6  S      Val( 2S)     1.08190      -0.18481
    28    C    6  px     Val( 2p)     0.98235       0.09793
    29    C    6  py     Val( 2p)     0.99066       0.09640
    30    C    6  pz     Val( 2p)     1.01024       0.09597

    31    C    7  S      Cor( 1S)     1.99996     -10.97218
    32    C    7  S      Val( 2S)     1.08787      -0.18942
    33    C    7  px     Val( 2p)     0.99152       0.09236
    34    C    7  py     Val( 2p)     0.99957       0.09414
    35    C    7  pz     Val( 2p)     1.00595       0.09635

    36    O    8  S      Cor( 1S)     1.99999     -20.14304
    37    O    8  S      Val( 2S)     1.74970      -0.99984
    38    O    8  px     Val( 2p)     1.46706      -0.16379
    39    O    8  py     Val( 2p)     1.50274      -0.17684
    40    O    8  pz     Val( 2p)     1.61205      -0.23435

    41    C    9  S      Cor( 1S)     1.99996     -10.99067
    42    C    9  S      Val( 2S)     1.08479      -0.19534
    43    C    9  px     Val( 2p)     0.95667       0.10819
    44    C    9  py     Val( 2p)     0.98894       0.10308
    45    C    9  pz     Val( 2p)     0.94906       0.11746

    46    C   10  S      Cor( 1S)     1.99997     -10.96449
    47    C   10  S      Val( 2S)     1.08219      -0.18333
    48    C   10  px     Val( 2p)     1.00664       0.08476
    49    C   10  py     Val( 2p)     1.01601       0.08727
    50    C   10  pz     Val( 2p)     1.02300       0.08476

    51    C   11  S      Cor( 1S)     1.99997     -10.96032
    52    C   11  S      Val( 2S)     1.07846      -0.17550
    53    C   11  px     Val( 2p)     1.03155       0.08421
    54    C   11  py     Val( 2p)     1.02305       0.09151
    55    C   11  pz     Val( 2p)     1.00057       0.09015

    56    H   12  S      Val( 1S)     0.96331       0.07560

    57    H   13  S      Val( 1S)     0.96278       0.07607

    58    H   14  S      Val( 1S)     0.96356       0.07510

    59    H   15  S      Val( 1S)     0.97792       0.06415

    60    H   16  S      Val( 1S)     0.99784       0.04671

    61    H   17  S      Val( 1S)     0.96748       0.07333

    62    H   18  S      Val( 1S)     0.97357       0.06663

    63    H   19  S      Val( 1S)     0.98514       0.05678

    64    H   20  S      Val( 1S)     0.97009       0.07669

    65    H   21  S      Val( 1S)     0.97069       0.07059

    66    H   22  S      Val( 1S)     0.96404       0.08327

    67    H   23  S      Val( 1S)     0.96379       0.07766

    68    H   24  S      Val( 1S)     0.81138       0.07397

    69    H   25  S      Val( 1S)     0.97372       0.07094

    70    H   26  S      Val( 1S)     0.96509       0.07591

    71    H   27  S      Val( 1S)     0.96678       0.07262

    72    H   28  S      Val( 1S)     0.96299       0.07444

    73    H   29  S      Val( 1S)     0.96452       0.07955

    74    H   30  S      Val( 1S)     0.95856       0.08846

    75    H   31  S      Val( 1S)     0.96272       0.07786


 Summary of Natural Population Analysis:                  
                                                          
                                       Natural Population 
                Natural  -----------------------------------------------
    Atom  No    Charge         Core      Valence    Rydberg      Total
 -----------------------------------------------------------------------
      C    1   -0.12646      1.99997     4.12648    0.00000     6.12646
      C    2    0.01588      1.99997     3.98415    0.00000     5.98412
      C    3    0.14556      1.99989     3.85455    0.00000     5.85444
      C    4   -0.06520      1.99995     4.06525    0.00000     6.06520
      C    5   -0.02147      1.99995     4.02152    0.00000     6.02147
      C    6   -0.06511      1.99996     4.06515    0.00000     6.06511
      C    7   -0.08487      1.99996     4.08491    0.00000     6.08487
      O    8   -0.33153      1.99999     6.33154    0.00000     8.33153
      C    9    0.02059      1.99996     3.97946    0.00000     5.97941
      C   10   -0.12782      1.99997     4.12785    0.00000     6.12782
      C   11   -0.13360      1.99997     4.13364    0.00000     6.13360
      H   12    0.03669      0.00000     0.96331    0.00000     0.96331
      H   13    0.03722      0.00000     0.96278    0.00000     0.96278
      H   14    0.03644      0.00000     0.96356    0.00000     0.96356
      H   15    0.02208      0.00000     0.97792    0.00000     0.97792
      H   16    0.00216      0.00000     0.99784    0.00000     0.99784
      H   17    0.03252      0.00000     0.96748    0.00000     0.96748
      H   18    0.02643      0.00000     0.97357    0.00000     0.97357
      H   19    0.01486      0.00000     0.98514    0.00000     0.98514
      H   20    0.02991      0.00000     0.97009    0.00000     0.97009
      H   21    0.02931      0.00000     0.97069    0.00000     0.97069
      H   22    0.03596      0.00000     0.96404    0.00000     0.96404
      H   23    0.03621      0.00000     0.96379    0.00000     0.96379
      H   24    0.18862      0.00000     0.81138    0.00000     0.81138
      H   25    0.02628      0.00000     0.97372    0.00000     0.97372
      H   26    0.03491      0.00000     0.96509    0.00000     0.96509
      H   27    0.03322      0.00000     0.96678    0.00000     0.96678
      H   28    0.03701      0.00000     0.96299    0.00000     0.96299
      H   29    0.03548      0.00000     0.96452    0.00000     0.96452
      H   30    0.04144      0.00000     0.95856    0.00000     0.95856
      H   31    0.03728      0.00000     0.96272    0.00000     0.96272
 =======================================================================
   * Total *    0.00000     21.99953    66.00047    0.00000    88.00000

                                 Natural Population      
 --------------------------------------------------------
   Core                      21.99953 ( 99.9979% of  22)
   Valence                   66.00047 (100.0007% of  66)
   Natural Minimal Basis     88.00000 (100.0000% of  88)
   Natural Rydberg Basis      0.00000 (  0.0000% of  88)
 --------------------------------------------------------

    Atom  No          Natural Electron Configuration
 ----------------------------------------------------------------------------
      C    1      [core]2S( 1.08)2p( 3.05)
      C    2      [core]2S( 1.08)2p( 2.91)
      C    3      [core]2S( 1.09)2p( 2.77)
      C    4      [core]2S( 1.08)2p( 2.98)
      C    5      [core]2S( 1.11)2p( 2.92)
      C    6      [core]2S( 1.08)2p( 2.98)
      C    7      [core]2S( 1.09)2p( 3.00)
      O    8      [core]2S( 1.75)2p( 4.58)
      C    9      [core]2S( 1.08)2p( 2.89)
      C   10      [core]2S( 1.08)2p( 3.05)
      C   11      [core]2S( 1.08)2p( 3.06)
      H   12            1S( 0.96)
      H   13            1S( 0.96)
      H   14            1S( 0.96)
      H   15            1S( 0.98)
      H   16            1S( 1.00)
      H   17            1S( 0.97)
      H   18            1S( 0.97)
      H   19            1S( 0.99)
      H   20            1S( 0.97)
      H   21            1S( 0.97)
      H   22            1S( 0.96)
      H   23            1S( 0.96)
      H   24            1S( 0.81)
      H   25            1S( 0.97)
      H   26            1S( 0.97)
      H   27            1S( 0.97)
      H   28            1S( 0.96)
      H   29            1S( 0.96)
      H   30            1S( 0.96)
      H   31            1S( 0.96)


 NATURAL BOND ORBITAL ANALYSIS:

                       Occupancies       Lewis Structure    Low   High
           Occ.    -------------------  -----------------   occ   occ
  Cycle   Thresh.   Lewis   Non-Lewis     CR  BD  3C  LP    (L)   (NL)   Dev
 =============================================================================
   1(1)    1.90    87.63230   0.36770     11  31   0   2     0      0    0.02
 -----------------------------------------------------------------------------

 Structure accepted: No low occupancy Lewis orbitals

 --------------------------------------------------------
   Core                     21.99953 ( 99.998% of  22)
   Valence Lewis            65.63277 ( 99.444% of  66)
  ==================       ============================
   Total Lewis              87.63230 ( 99.582% of  88)
  -----------------------------------------------------
   Valence non-Lewis         0.36770 (  0.418% of  88)
   Rydberg non-Lewis         0.00000 (  0.000% of  88)
  ==================       ============================
   Total non-Lewis           0.36770 (  0.418% of  88)
 --------------------------------------------------------


       (Occupancy)   Bond orbital/ Coefficients/ Hybrids
 ---------------------------------------------------------------------------------
     1. (1.98888) BD ( 1) C   1 - C   2  
                ( 50.77%)   0.7126* C   1 s( 25.74%)p 2.88( 74.26%)
                                            0.0001  0.5073  0.6838  0.1884 -0.4894
                ( 49.23%)   0.7016* C   2 s( 25.20%)p 2.97( 74.80%)
                                            0.0000  0.5020 -0.6716 -0.1920  0.5100
     2. (1.99543) BD ( 1) C   1 - H  12  
                ( 51.88%)   0.7203* C   1 s( 24.84%)p 3.03( 75.16%)
                                            0.0000  0.4983  0.2587 -0.1880  0.8058
                ( 48.12%)   0.6937* H  12 s(100.00%)
                                            1.0000
     3. (1.99501) BD ( 1) C   1 - H  13  
                ( 51.87%)   0.7202* C   1 s( 24.71%)p 3.05( 75.29%)
                                            0.0000  0.4971 -0.5388  0.6797  0.0242
                ( 48.13%)   0.6937* H  13 s(100.00%)
                                            1.0000
     4. (1.99497) BD ( 1) C   1 - H  14  
                ( 51.83%)   0.7199* C   1 s( 24.71%)p 3.05( 75.29%)
                                            0.0000  0.4971 -0.4185 -0.6835 -0.3326
                ( 48.17%)   0.6940* H  14 s(100.00%)
                                            1.0000
     5. (1.98532) BD ( 1) C   2 - C   6  
                ( 49.67%)   0.7047* C   2 s( 25.08%)p 2.99( 74.92%)
                                            0.0000  0.5008  0.5386 -0.6765 -0.0383
                ( 50.33%)   0.7095* C   6 s( 25.36%)p 2.94( 74.64%)
                                            0.0001  0.5036 -0.5240  0.6853  0.0464
     6. (1.98311) BD ( 1) C   2 - C   7  
                ( 49.39%)   0.7028* C   2 s( 25.07%)p 2.99( 74.93%)
                                            0.0001  0.5007  0.4197  0.6868  0.3185
                ( 50.61%)   0.7114* C   7 s( 25.73%)p 2.89( 74.27%)
                                            0.0001  0.5072 -0.4008 -0.6963 -0.3118
     7. (1.98503) BD ( 1) C   2 - H  15  
                ( 51.05%)   0.7145* C   2 s( 24.65%)p 3.06( 75.35%)
                                            0.0000  0.4965 -0.2875  0.1838 -0.7981
                ( 48.95%)   0.6996* H  15 s(100.00%)
                                            1.0000
     8. (1.98224) BD ( 1) C   3 - C   5  
                ( 49.89%)   0.7064* C   3 s( 26.02%)p 2.84( 73.98%)
                                            0.0001  0.5101  0.5412 -0.6640 -0.0772
                ( 50.11%)   0.7079* C   5 s( 25.35%)p 2.94( 74.65%)
                                            0.0000  0.5035 -0.5525  0.6358  0.1923
     9. (1.98727) BD ( 1) C   3 - C   7  
                ( 50.03%)   0.7073* C   3 s( 26.69%)p 2.75( 73.31%)
                                            0.0000  0.5167 -0.6649 -0.2031  0.4998
                ( 49.97%)   0.7069* C   7 s( 25.18%)p 2.97( 74.82%)
                                            0.0001  0.5018  0.7061  0.1696 -0.4701
    10. (1.98851) BD ( 1) C   3 - O   8  
                ( 41.07%)   0.6409* C   3 s( 22.57%)p 3.43( 77.43%)
                                            0.0000  0.4751  0.4331  0.6761  0.3599
                ( 58.93%)   0.7677* O   8 s( 16.43%)p 5.09( 83.57%)
                                            0.0000  0.4053 -0.3725 -0.7236 -0.4164
    11. (1.98863) BD ( 1) C   3 - H  16  
                ( 50.38%)   0.7098* C   3 s( 24.71%)p 3.05( 75.29%)
                                            0.0000  0.4971 -0.2783  0.2463 -0.7841
                ( 49.62%)   0.7044* H  16 s(100.00%)
                                            1.0000
    12. (1.98426) BD ( 1) C   4 - C   5  
                ( 50.25%)   0.7089* C   4 s( 25.63%)p 2.90( 74.37%)
                                            0.0001  0.5062  0.4161  0.7042  0.2733
                ( 49.75%)   0.7053* C   5 s( 25.83%)p 2.87( 74.17%)
                                            0.0000  0.5082 -0.4316 -0.7242 -0.1761
    13. (1.99027) BD ( 1) C   4 - C   6  
                ( 50.10%)   0.7078* C   4 s( 25.42%)p 2.93( 74.58%)
                                            0.0000  0.5042 -0.6861 -0.1519  0.5020
                ( 49.90%)   0.7064* C   6 s( 25.32%)p 2.95( 74.68%)
                                            0.0000  0.5032  0.7008  0.1976 -0.4655
    14. (1.98914) BD ( 1) C   4 - H  17  
                ( 51.62%)   0.7185* C   4 s( 25.11%)p 2.98( 74.89%)
                                            0.0000  0.5011  0.5325 -0.6819  0.0180
                ( 48.38%)   0.6956* H  17 s(100.00%)
                                            1.0000
    15. (1.99006) BD ( 1) C   4 - H  18  
                ( 51.29%)   0.7162* C   4 s( 23.83%)p 3.20( 76.17%)
                                            0.0000  0.4882 -0.2695  0.1267 -0.8204
                ( 48.71%)   0.6979* H  18 s(100.00%)
                                            1.0000
    16. (1.98023) BD ( 1) C   5 - C   9  
                ( 50.25%)   0.7088* C   5 s( 25.81%)p 2.87( 74.19%)
                                            0.0001  0.5080  0.5445 -0.1273  0.6551
                ( 49.75%)   0.7054* C   9 s( 25.57%)p 2.91( 74.43%)
                                            0.0001  0.5056 -0.6364  0.0710 -0.5782
    17. (1.98288) BD ( 1) C   5 - H  19  
                ( 50.57%)   0.7111* C   5 s( 23.01%)p 3.35( 76.99%)
                                            0.0000  0.4797  0.4605  0.2346 -0.7091
                ( 49.43%)   0.7031* H  19 s(100.00%)
                                            1.0000
    18. (1.99022) BD ( 1) C   6 - H  20  
                ( 51.55%)   0.7180* C   6 s( 24.77%)p 3.04( 75.23%)
                                            0.0000  0.4977  0.2401 -0.2362  0.7992
                ( 48.45%)   0.6960* H  20 s(100.00%)
                                            1.0000
    19. (1.98929) BD ( 1) C   6 - H  21  
                ( 51.42%)   0.7171* C   6 s( 24.55%)p 3.07( 75.45%)
                                            0.0000  0.4954 -0.4203 -0.6600 -0.3773
                ( 48.58%)   0.6970* H  21 s(100.00%)
                                            1.0000
    20. (1.98855) BD ( 1) C   7 - H  22  
                ( 51.82%)   0.7199* C   7 s( 24.71%)p 3.05( 75.29%)
                                            0.0000  0.4971  0.2296 -0.1395  0.8251
                ( 48.18%)   0.6941* H  22 s(100.00%)
                                            1.0000
    21. (1.98876) BD ( 1) C   7 - H  23  
                ( 51.77%)   0.7195* C   7 s( 24.39%)p 3.10( 75.61%)
                                            0.0000  0.4939 -0.5368  0.6833 -0.0326
                ( 48.23%)   0.6945* H  23 s(100.00%)
                                            1.0000
    22. (1.98924) BD ( 1) O   8 - H  24  
                ( 59.42%)   0.7709* O   8 s( 16.58%)p 5.03( 83.42%)
                                            0.0000  0.4072  0.6764  0.2115 -0.5762
                ( 40.58%)   0.6370* H  24 s(100.00%)
                                            1.0000
    23. (1.98851) BD ( 1) C   9 - C  10  
                ( 48.91%)   0.6994* C   9 s( 24.66%)p 3.06( 75.34%)
                                            0.0000  0.4966  0.6154 -0.5290 -0.3080
                ( 51.09%)   0.7148* C  10 s( 25.76%)p 2.88( 74.24%)
                                            0.0001  0.5075 -0.6491  0.4949  0.2759
    24. (1.99058) BD ( 1) C   9 - C  11  
                ( 49.10%)   0.7007* C   9 s( 25.55%)p 2.91( 74.45%)
                                            0.0000  0.5055 -0.3076 -0.3154  0.7419
                ( 50.90%)   0.7134* C  11 s( 25.95%)p 2.85( 74.05%)
                                            0.0001  0.5095  0.2532  0.2970 -0.7669
    25. (1.98347) BD ( 1) C   9 - H  25  
                ( 51.21%)   0.7156* C   9 s( 24.23%)p 3.13( 75.77%)
                                            0.0000  0.4922  0.3489  0.7846  0.1428
                ( 48.79%)   0.6985* H  25 s(100.00%)
                                            1.0000
    26. (1.99500) BD ( 1) C  10 - H  26  
                ( 51.80%)   0.7197* C  10 s( 24.90%)p 3.02( 75.10%)
                                            0.0000  0.4990 -0.2718 -0.8179 -0.0903
                ( 48.20%)   0.6943* H  26 s(100.00%)
                                            1.0000
    27. (1.99516) BD ( 1) C  10 - H  27  
                ( 51.69%)   0.7189* C  10 s( 24.70%)p 3.05( 75.30%)
                                            0.0000  0.4970  0.2863  0.2925 -0.7651
                ( 48.31%)   0.6951* H  27 s(100.00%)
                                            1.0000
    28. (1.99457) BD ( 1) C  10 - H  28  
                ( 51.84%)   0.7200* C  10 s( 24.64%)p 3.06( 75.36%)
                                            0.0000  0.4964  0.6502  0.0233  0.5747
                ( 48.16%)   0.6940* H  28 s(100.00%)
                                            1.0000
    29. (1.99429) BD ( 1) C  11 - H  29  
                ( 51.81%)   0.7198* C  11 s( 24.87%)p 3.02( 75.13%)
                                            0.0000  0.4987 -0.3057 -0.8069 -0.0821
                ( 48.19%)   0.6942* H  29 s(100.00%)
                                            1.0000
    30. (1.99389) BD ( 1) C  11 - H  30  
                ( 52.10%)   0.7218* C  11 s( 25.02%)p 3.00( 74.98%)
                                            0.0000  0.5002 -0.6190  0.5105  0.3257
                ( 47.90%)   0.6921* H  30 s(100.00%)
                                            1.0000
    31. (1.99402) BD ( 1) C  11 - H  31  
                ( 51.85%)   0.7201* C  11 s( 24.15%)p 3.14( 75.85%)
                                            0.0000  0.4914  0.6778 -0.0086  0.5469
                ( 48.15%)   0.6939* H  31 s(100.00%)
                                            1.0000
    32. (1.99997) CR ( 1) C   1           s(100.00%)
                                            1.0000  0.0000 -0.0001  0.0000  0.0000
    33. (1.99997) CR ( 1) C   2           s(100.00%)
                                            1.0000  0.0000 -0.0001  0.0000  0.0000
    34. (1.99989) CR ( 1) C   3           s(100.00%)
                                            1.0000  0.0000  0.0000  0.0001  0.0000
    35. (1.99995) CR ( 1) C   4           s(100.00%)
                                            1.0000  0.0000  0.0000 -0.0001 -0.0001
    36. (1.99995) CR ( 1) C   5           s(100.00%)
                                            1.0000  0.0000  0.0000  0.0000 -0.0001
    37. (1.99996) CR ( 1) C   6           s(100.00%)
                                            1.0000  0.0000  0.0000 -0.0001  0.0000
    38. (1.99996) CR ( 1) C   7           s(100.00%)
                                            1.0000 -0.0001  0.0000  0.0001  0.0000
    39. (1.99999) CR ( 1) O   8           s(100.00%)
                                            1.0000  0.0000  0.0000  0.0000  0.0000
    40. (1.99996) CR ( 1) C   9           s(100.00%)
                                            1.0000  0.0000  0.0001  0.0000  0.0000
    41. (1.99997) CR ( 1) C  10           s(100.00%)
                                            1.0000  0.0000  0.0001  0.0000  0.0000
    42. (1.99997) CR ( 1) C  11           s(100.00%)
                                            1.0000  0.0000  0.0000  0.0000  0.0001
    43. (1.99315) LP ( 1) O   8           s( 66.66%)p 0.50( 33.34%)
                                            0.0000  0.8165 -0.1085  0.2100  0.5268
    44. (1.97282) LP ( 2) O   8           s(  0.33%)p99.99( 99.67%)
                                            0.0000  0.0573 -0.6260  0.6226 -0.4660
    45. (0.00988) BD*( 1) C   1 - C   2  
                ( 49.23%)   0.7016* C   1 s( 25.74%)p 2.88( 74.26%)
                                           -0.0001 -0.5073 -0.6838 -0.1884  0.4894
                ( 50.77%)  -0.7126* C   2 s( 25.20%)p 2.97( 74.80%)
                                            0.0000 -0.5020  0.6716  0.1920 -0.5100
    46. (0.00586) BD*( 1) C   1 - H  12  
                ( 48.12%)   0.6937* C   1 s( 24.84%)p 3.03( 75.16%)
                                            0.0000 -0.4983 -0.2587  0.1880 -0.8058
                ( 51.88%)  -0.7203* H  12 s(100.00%)
                                           -1.0000
    47. (0.00511) BD*( 1) C   1 - H  13  
                ( 48.13%)   0.6937* C   1 s( 24.71%)p 3.05( 75.29%)
                                            0.0000 -0.4971  0.5388 -0.6797 -0.0242
                ( 51.87%)  -0.7202* H  13 s(100.00%)
                                           -1.0000
    48. (0.00508) BD*( 1) C   1 - H  14  
                ( 48.17%)   0.6940* C   1 s( 24.71%)p 3.05( 75.29%)
                                            0.0000 -0.4971  0.4185  0.6835  0.3326
                ( 51.83%)  -0.7199* H  14 s(100.00%)
                                           -1.0000
    49. (0.01593) BD*( 1) C   2 - C   6  
                ( 50.33%)   0.7095* C   2 s( 25.08%)p 2.99( 74.92%)
                                            0.0000  0.5008  0.5386 -0.6765 -0.0383
                ( 49.67%)  -0.7047* C   6 s( 25.36%)p 2.94( 74.64%)
                                            0.0001  0.5036 -0.5240  0.6853  0.0464
    50. (0.01446) BD*( 1) C   2 - C   7  
                ( 50.61%)   0.7114* C   2 s( 25.07%)p 2.99( 74.93%)
                                            0.0001  0.5007  0.4197  0.6868  0.3185
                ( 49.39%)  -0.7028* C   7 s( 25.73%)p 2.89( 74.27%)
                                            0.0001  0.5072 -0.4008 -0.6963 -0.3118
    51. (0.01222) BD*( 1) C   2 - H  15  
                ( 48.95%)   0.6996* C   2 s( 24.65%)p 3.06( 75.35%)
                                            0.0000 -0.4965  0.2875 -0.1838  0.7981
                ( 51.05%)  -0.7145* H  15 s(100.00%)
                                           -1.0000
    52. (0.03613) BD*( 1) C   3 - C   5  
                ( 50.11%)   0.7079* C   3 s( 26.02%)p 2.84( 73.98%)
                                            0.0001  0.5101  0.5412 -0.6640 -0.0772
                ( 49.89%)  -0.7064* C   5 s( 25.35%)p 2.94( 74.65%)
                                            0.0000  0.5035 -0.5525  0.6358  0.1923
    53. (0.02249) BD*( 1) C   3 - C   7  
                ( 49.97%)   0.7069* C   3 s( 26.69%)p 2.75( 73.31%)
                                            0.0000 -0.5167  0.6649  0.2031 -0.4998
                ( 50.03%)  -0.7073* C   7 s( 25.18%)p 2.97( 74.82%)
                                           -0.0001 -0.5018 -0.7061 -0.1696  0.4701
    54. (0.02142) BD*( 1) C   3 - O   8  
                ( 58.93%)   0.7677* C   3 s( 22.57%)p 3.43( 77.43%)
                                            0.0000  0.4751  0.4331  0.6761  0.3599
                ( 41.07%)  -0.6409* O   8 s( 16.43%)p 5.09( 83.57%)
                                            0.0000  0.4053 -0.3725 -0.7236 -0.4164
    55. (0.02181) BD*( 1) C   3 - H  16  
                ( 49.62%)   0.7044* C   3 s( 24.71%)p 3.05( 75.29%)
                                            0.0000 -0.4971  0.2783 -0.2463  0.7841
                ( 50.38%)  -0.7098* H  16 s(100.00%)
                                           -1.0000
    56. (0.01723) BD*( 1) C   4 - C   5  
                ( 49.75%)   0.7053* C   4 s( 25.63%)p 2.90( 74.37%)
                                           -0.0001 -0.5062 -0.4161 -0.7042 -0.2733
                ( 50.25%)  -0.7089* C   5 s( 25.83%)p 2.87( 74.17%)
                                            0.0000 -0.5082  0.4316  0.7242  0.1761
    57. (0.01245) BD*( 1) C   4 - C   6  
                ( 49.90%)   0.7064* C   4 s( 25.42%)p 2.93( 74.58%)
                                            0.0000 -0.5042  0.6861  0.1519 -0.5020
                ( 50.10%)  -0.7078* C   6 s( 25.32%)p 2.95( 74.68%)
                                            0.0000 -0.5032 -0.7008 -0.1976  0.4655
    58. (0.00998) BD*( 1) C   4 - H  17  
                ( 48.38%)   0.6956* C   4 s( 25.11%)p 2.98( 74.89%)
                                            0.0000 -0.5011 -0.5325  0.6819 -0.0180
                ( 51.62%)  -0.7185* H  17 s(100.00%)
                                           -1.0000
    59. (0.00812) BD*( 1) C   4 - H  18  
                ( 48.71%)   0.6979* C   4 s( 23.83%)p 3.20( 76.17%)
                                            0.0000 -0.4882  0.2695 -0.1267  0.8204
                ( 51.29%)  -0.7162* H  18 s(100.00%)
                                           -1.0000
    60. (0.02372) BD*( 1) C   5 - C   9  
                ( 49.75%)   0.7054* C   5 s( 25.81%)p 2.87( 74.19%)
                                           -0.0001 -0.5080 -0.5445  0.1273 -0.6551
                ( 50.25%)  -0.7088* C   9 s( 25.57%)p 2.91( 74.43%)
                                           -0.0001 -0.5056  0.6364 -0.0710  0.5782
    61. (0.00995) BD*( 1) C   5 - H  19  
                ( 49.43%)   0.7031* C   5 s( 23.01%)p 3.35( 76.99%)
                                            0.0000 -0.4797 -0.4605 -0.2346  0.7091
                ( 50.57%)  -0.7111* H  19 s(100.00%)
                                           -1.0000
    62. (0.01142) BD*( 1) C   6 - H  20  
                ( 48.45%)   0.6960* C   6 s( 24.77%)p 3.04( 75.23%)
                                            0.0000 -0.4977 -0.2401  0.2362 -0.7992
                ( 51.55%)  -0.7180* H  20 s(100.00%)
                                           -1.0000
    63. (0.00835) BD*( 1) C   6 - H  21  
                ( 48.58%)   0.6970* C   6 s( 24.55%)p 3.07( 75.45%)
                                            0.0000 -0.4954  0.4203  0.6600  0.3773
                ( 51.42%)  -0.7171* H  21 s(100.00%)
                                           -1.0000
    64. (0.01165) BD*( 1) C   7 - H  22  
                ( 48.18%)   0.6941* C   7 s( 24.71%)p 3.05( 75.29%)
                                            0.0000 -0.4971 -0.2296  0.1395 -0.8251
                ( 51.82%)  -0.7199* H  22 s(100.00%)
                                           -1.0000
    65. (0.00872) BD*( 1) C   7 - H  23  
                ( 48.23%)   0.6945* C   7 s( 24.39%)p 3.10( 75.61%)
                                            0.0000 -0.4939  0.5368 -0.6833  0.0326
                ( 51.77%)  -0.7195* H  23 s(100.00%)
                                           -1.0000
    66. (0.00707) BD*( 1) O   8 - H  24  
                ( 40.58%)   0.6370* O   8 s( 16.58%)p 5.03( 83.42%)
                                            0.0000 -0.4072 -0.6764 -0.2115  0.5762
                ( 59.42%)  -0.7709* H  24 s(100.00%)
                                           -1.0000
    67. (0.01024) BD*( 1) C   9 - C  10  
                ( 51.09%)   0.7148* C   9 s( 24.66%)p 3.06( 75.34%)
                                            0.0000  0.4966  0.6154 -0.5290 -0.3080
                ( 48.91%)  -0.6994* C  10 s( 25.76%)p 2.88( 74.24%)
                                            0.0001  0.5075 -0.6491  0.4949  0.2759
    68. (0.01088) BD*( 1) C   9 - C  11  
                ( 50.90%)   0.7134* C   9 s( 25.55%)p 2.91( 74.45%)
                                            0.0000  0.5055 -0.3076 -0.3154  0.7419
                ( 49.10%)  -0.7007* C  11 s( 25.95%)p 2.85( 74.05%)
                                            0.0001  0.5095  0.2532  0.2970 -0.7669
    69. (0.01180) BD*( 1) C   9 - H  25  
                ( 48.79%)   0.6985* C   9 s( 24.23%)p 3.13( 75.77%)
                                            0.0000 -0.4922 -0.3489 -0.7846 -0.1428
                ( 51.21%)  -0.7156* H  25 s(100.00%)
                                           -1.0000
    70. (0.00681) BD*( 1) C  10 - H  26  
                ( 48.20%)   0.6943* C  10 s( 24.90%)p 3.02( 75.10%)
                                            0.0000 -0.4990  0.2718  0.8179  0.0903
                ( 51.80%)  -0.7197* H  26 s(100.00%)
                                           -1.0000
    71. (0.00554) BD*( 1) C  10 - H  27  
                ( 48.31%)   0.6951* C  10 s( 24.70%)p 3.05( 75.30%)
                                            0.0000 -0.4970 -0.2863 -0.2925  0.7651
                ( 51.69%)  -0.7189* H  27 s(100.00%)
                                           -1.0000
    72. (0.00471) BD*( 1) C  10 - H  28  
                ( 48.16%)   0.6940* C  10 s( 24.64%)p 3.06( 75.36%)
                                            0.0000 -0.4964 -0.6502 -0.0233 -0.5747
[...]
   38     200.0176       -0.0016     200.0192         0.0020     200.0155
 Sum      215.8475      -23.0368     238.8843       -26.5995     242.4471

 Contributions to Isotropic shielding for atom    8 (   359.9675 ppm):
                         Standard Origin              Atomic Origin
 NLMO      Total    Paramagnetic  Diamagnetic   Paramagnetic  Diamagnetic
   10      27.0432        9.6101      17.4332        16.5154      10.5279
   11      -0.4595       -0.6040       0.1445        -1.7026       1.2430
   16      -0.1740       -0.2444       0.0704        -1.2125       1.0384
   22      21.6986       11.5009      10.1978         7.3120      14.3867
   39     271.1836       -0.0060     271.1896        -0.0036     271.1871
   43      34.8954        0.2071      34.6883        -2.5575      37.4529
   44       5.0384      -33.0114      38.0498       -34.8513      39.8897
 Sum      359.2257      -12.5478     371.7735       -16.5001     375.7258

 Contributions to Isotropic shielding for atom    9 (   214.9820 ppm):
                         Standard Origin              Atomic Origin
 NLMO      Total    Paramagnetic  Diamagnetic   Paramagnetic  Diamagnetic
   10      -0.0320       -0.4598       0.4278        -1.2274       1.1954
   16       5.0262       -8.2466      13.2728        -2.7037       7.7299
   17       0.4551        0.1218       0.3333        -0.5702       1.0253
   23      -1.9629       -3.8493       1.8865        -9.3935       7.4306
   24       0.4216       -7.4523       7.8739        -7.1510       7.5727
   25       6.1538       -1.0296       7.1833        -4.7855      10.9393
   26       1.1722       -0.2425       1.4146         0.1623       1.0099
   27       0.7523       -0.5401       1.2924        -0.2690       1.0213
   28       0.6097       -0.4692       1.0789        -0.4128       1.0225
   29       0.7372       -0.2577       0.9949        -0.2964       1.0337
   30       0.5493       -0.5295       1.0788        -0.4727       1.0219
   31       0.5746       -0.1021       0.6768        -0.4458       1.0204
   40     199.9217       -0.0018     199.9235         0.0024     199.9193
 Sum      214.3787      -23.0586     237.4373       -27.5634     241.9422

 Contributions to Isotropic shielding for atom   10 (   220.4952 ppm):
                         Standard Origin              Atomic Origin
 NLMO      Total    Paramagnetic  Diamagnetic   Paramagnetic  Diamagnetic
   17      -0.1901       -0.1421      -0.0480        -1.1081       0.9180
   23       4.7452      -11.9920      16.7372        -3.3150       8.0602
   24      -0.5068        0.0282      -0.5351        -1.2350       0.7282
   25       0.3160        0.2067       0.1094        -0.7365       1.0526
   26       6.1050       -4.3506      10.4556        -5.0271      11.1321
   27       4.7466       -2.8122       7.5587        -6.3190      11.0656
   28       4.9932        1.5856       3.4076        -6.1231      11.1162
   41     200.0745       -0.0042     200.0787         0.0024     200.0721
 Sum      220.2835      -17.4805     237.7640       -23.8613     244.1449

 Contributions to Isotropic shielding for atom   11 (   223.1198 ppm):
                         Standard Origin              Atomic Origin
 NLMO      Total    Paramagnetic  Diamagnetic   Paramagnetic  Diamagnetic
   24       3.1170       -8.3909      11.5079        -4.7975       7.9145
   25       0.3591       -0.1770       0.5361        -0.6601       1.0192
   29       6.8014       -4.2109      11.0123        -4.3041      11.1056
   30       6.7657       -6.1472      12.9128        -4.4476      11.2133
   31       5.9055        2.1915       3.7140        -5.1501      11.0556
   42     200.0792       -0.0014     200.0807         0.0010     200.0782
 Sum      223.0280      -16.7358     239.7639       -19.3583     242.3864

 Contributions to Isotropic shielding for atom   12 (    32.6246 ppm):
                         Standard Origin              Atomic Origin
 NLMO      Total    Paramagnetic  Diamagnetic   Paramagnetic  Diamagnetic
    1       1.6754       -1.3310       3.0064         0.7888       0.8866
    2      26.3031        0.3363      25.9668         0.4178      25.8853
    3       1.9645        1.4979       0.4666         0.1376       1.8269
    4       1.9563        1.5872       0.3692         0.1308       1.8256
 Sum       31.8993        2.0903      29.8090         1.4750      30.4244

 Contributions to Isotropic shielding for atom   13 (    32.3840 ppm):
                         Standard Origin              Atomic Origin
 NLMO      Total    Paramagnetic  Diamagnetic   Paramagnetic  Diamagnetic
    1       1.3851       -0.3562       1.7412         0.3919       0.9932
    2       1.9684        1.2029       0.7655         0.1256       1.8428
    3      26.3308        0.1433      26.1875         0.4353      25.8955
    4       1.8992        2.3663      -0.4670         0.0591       1.8402
    6      -0.1233        0.5587      -0.6820        -1.0127       0.8894
 Sum       31.4603        3.9150      27.5453        -0.0009      31.4611

 Contributions to Isotropic shielding for atom   14 (    32.4393 ppm):
                         Standard Origin              Atomic Origin
 NLMO      Total    Paramagnetic  Diamagnetic   Paramagnetic  Diamagnetic
    1       1.3595       -0.2810       1.6404         0.3639       0.9956
    2       1.9633        1.2694       0.6939         0.1208       1.8425
    3       1.9070        2.3473      -0.4403         0.0661       1.8410
    4      26.3544        0.1277      26.2267         0.4376      25.9168
    5      -0.1302        0.5973      -0.7275        -1.0216       0.8914
 Sum       31.4540        4.0607      27.3933        -0.0332      31.4872

 Contributions to Isotropic shielding for atom   15 (    32.8367 ppm):
                         Standard Origin              Atomic Origin
 NLMO      Total    Paramagnetic  Diamagnetic   Paramagnetic  Diamagnetic
    1       0.8132        2.3039      -1.4907        -0.1381       0.9514
    5       1.4102        0.5754       0.8347         0.5488       0.8614
    6       1.4268        0.4760       0.9508         0.5722       0.8545
    7      26.5149       -0.0382      26.5531         0.4241      26.0908
 Sum       30.1651        3.3172      26.8479         1.4070      28.7581

 Contributions to Isotropic shielding for atom   16 (    31.8807 ppm):
                         Standard Origin              Atomic Origin
 NLMO      Total    Paramagnetic  Diamagnetic   Paramagnetic  Diamagnetic
    8       1.0657        0.2475       0.8181        -0.0074       1.0731
    9       0.7960        0.5314       0.2646        -0.4009       1.1969
   10       0.4801        1.4792      -0.9991        -1.1279       1.6081
   11      26.8536        0.1945      26.6591         0.7411      26.1125
   17      -0.0029       -0.2669       0.2640        -1.0423       1.0394
   22       0.2860       -0.7411       1.0271        -0.6969       0.9829
 Sum       29.4785        1.4446      28.0339        -2.5344      32.0129

 Contributions to Isotropic shielding for atom   17 (    32.4129 ppm):
                         Standard Origin              Atomic Origin
 NLMO      Total    Paramagnetic  Diamagnetic   Paramagnetic  Diamagnetic
   12       1.2594        0.4374       0.8220         0.3305       0.9289
   13       1.1023        0.9442       0.1581         0.0496       1.0527
   14      26.3534        0.0654      26.2880         0.4427      25.9107
   15       2.0263        1.7078       0.3185         0.2761       1.7502
   16      -0.1209        0.0144      -0.1353        -1.0652       0.9443
   23      -0.0372       -0.5296       0.4924        -1.0090       0.9718
   26      -0.3417       -1.5630       1.2213        -0.9408       0.5991
 Sum       30.2417        1.0766      29.1650        -1.9161      32.1578

 Contributions to Isotropic shielding for atom   18 (    32.6641 ppm):
                         Standard Origin              Atomic Origin
 NLMO      Total    Paramagnetic  Diamagnetic   Paramagnetic  Diamagnetic
   12       1.3512        0.5569       0.7943         0.2786       1.0726
   13       1.1170        1.0174       0.0995         0.0635       1.0534
   14       2.0533        1.6916       0.3616         0.2324       1.8209
   15      26.4911       -0.0291      26.5202         0.4072      26.0839
   17      -0.0361       -0.2045       0.1684        -1.0437       1.0076
 Sum       30.9764        3.0322      27.9442        -0.0620      31.0384

 Contributions to Isotropic shielding for atom   19 (    32.7911 ppm):
                         Standard Origin              Atomic Origin
 NLMO      Total    Paramagnetic  Diamagnetic   Paramagnetic  Diamagnetic
    8       1.1983        1.2268      -0.0285         0.0761       1.1222
   11      -0.0180       -0.4375       0.4195        -1.0492       1.0312
   12       1.1757        1.2162      -0.0404        -0.0099       1.1856
   15       0.0387       -0.4489       0.4876        -1.0916       1.1303
   16       1.0349        1.4619      -0.4270        -0.2982       1.3331
   17      26.7472       -0.2714      27.0186         0.4484      26.2988
   22      -0.0322       -1.0333       1.0011        -0.7143       0.6821
   23      -0.0678       -0.2936       0.2259        -1.0762       1.0084
   27      -0.1448       -1.6497       1.5049        -1.0411       0.8962
 Sum       29.9320       -0.2296      30.1616        -4.7559      34.6879

 Contributions to Isotropic shielding for atom   20 (    32.8852 ppm):
                         Standard Origin              Atomic Origin
 NLMO      Total    Paramagnetic  Diamagnetic   Paramagnetic  Diamagnetic
    2      -0.0574       -1.2116       1.1542        -0.9571       0.8997
    5       1.3195        0.4706       0.8489         0.4702       0.8493
   13       1.3812       -0.0053       1.3865         0.4687       0.9125
   18      26.4058        0.2292      26.1766         0.4098      25.9959
   19       1.9867        1.7058       0.2809         0.2079       1.7788
   29      -0.4084       -1.1360       0.7276        -0.8936       0.4852
 Sum       30.6273        0.0527      30.5746        -0.2941      30.9214

 Contributions to Isotropic shielding for atom   21 (    32.5721 ppm):
                         Standard Origin              Atomic Origin
 NLMO      Total    Paramagnetic  Diamagnetic   Paramagnetic  Diamagnetic
    4      -0.0850       -1.3465       1.2615        -0.9694       0.8844
    5       1.0094        1.3690      -0.3596         0.0807       0.9287
   13       1.1598        1.0076       0.1522         0.1452       1.0146
   15       0.1814        0.0510       0.1304        -0.8728       1.0542
   18       2.0884        1.2878       0.8006         0.3116       1.7768
   19      26.4801       -0.0448      26.5249         0.4653      26.0148
 Sum       30.8341        2.3241      28.5100        -0.8394      31.6735

 Contributions to Isotropic shielding for atom   22 (    32.4962 ppm):
                         Standard Origin              Atomic Origin
 NLMO      Total    Paramagnetic  Diamagnetic   Paramagnetic  Diamagnetic
    2      -0.0552       -1.2355       1.1803        -0.9540       0.8988
    6       1.2715        0.5179       0.7537         0.4276       0.8439
    9       1.3651        0.1341       1.2309         0.5521       0.8130
   10       0.1159       -0.4967       0.6126        -1.4433       1.5592
   20      26.2385        0.2346      26.0039         0.4074      25.8311
   21       2.0178        1.5784       0.4394         0.1456       1.8721
 Sum       30.9536        0.7328      30.2208        -0.8646      31.8181

 Contributions to Isotropic shielding for atom   23 (    32.0443 ppm):
                         Standard Origin              Atomic Origin
 NLMO      Total    Paramagnetic  Diamagnetic   Paramagnetic  Diamagnetic
    3      -0.0866       -1.3711       1.2845        -0.9703       0.8837
    6       1.0220        1.3647      -0.3427         0.0701       0.9519
    9       1.1557        1.0098       0.1459         0.2332       0.9225
   10       0.0674       -0.0329       0.1003        -1.4625       1.5299
   20       2.0550        1.2605       0.7945         0.1725       1.8824
   21      26.2616       -0.0291      26.2907         0.4412      25.8204
 Sum       30.4751        2.2019      28.2732        -1.5157      31.9908

 Contributions to Isotropic shielding for atom   24 (    34.8999 ppm):
                         Standard Origin              Atomic Origin
 NLMO      Total    Paramagnetic  Diamagnetic   Paramagnetic  Diamagnetic
    8      -0.1257        0.1543      -0.2800        -1.0551       0.9294
   10       1.5066        1.9009      -0.3943         0.7848       0.7218
   16      -0.0111        0.0812      -0.0923        -1.0061       0.9950
   22      23.0461       -0.4842      23.5302        -0.1702      23.2163
   43       4.0633        1.0324       3.0309         2.1449       1.9184
   44       5.5956        2.5581       3.0374         2.4252       3.1704
 Sum       34.0747        5.2428      28.8319         3.1234      30.9513

 Contributions to Isotropic shielding for atom   25 (    32.3086 ppm):
                         Standard Origin              Atomic Origin
 NLMO      Total    Paramagnetic  Diamagnetic   Paramagnetic  Diamagnetic
   10       0.0460       -0.3884       0.4345        -1.0911       1.1372
   16       1.5098        0.2065       1.3033         0.4432       1.0666
   22      -0.0649       -0.7020       0.6371        -1.0112       0.9463
   23       0.7603        2.1584      -1.3982        -0.2912       1.0515
   24       1.0959        1.1111      -0.0153         0.0384       1.0575
   25      26.4080       -0.1195      26.5275         0.4168      25.9911
   28       0.2094       -0.7608       0.9703        -0.7956       1.0050
 Sum       29.9645        1.5053      28.4592        -2.2907      32.2551

 Contributions to Isotropic shielding for atom   26 (    32.5216 ppm):
                         Standard Origin              Atomic Origin
 NLMO      Total    Paramagnetic  Diamagnetic   Paramagnetic  Diamagnetic
   12      -0.0971        0.1285      -0.2256        -1.0963       0.9992
   23       1.5693       -1.1952       2.7645         0.6417       0.9275
   24      -0.1500        0.3372      -0.4872        -1.0570       0.9071
   26      26.3543        0.2808      26.0736         0.4162      25.9381
   27       1.9476        1.1335       0.8141         0.1392       1.8084
   28       1.8944        1.8755       0.0189         0.0421       1.8523
 Sum       31.5186        2.5602      28.9584        -0.9141      32.4327

 Contributions to Isotropic shielding for atom   27 (    32.7016 ppm):
                         Standard Origin              Atomic Origin
 NLMO      Total    Paramagnetic  Diamagnetic   Paramagnetic  Diamagnetic
   16      -0.0540        0.3173      -0.3713        -1.0219       0.9679
   23       1.5241       -0.6457       2.1699         0.5149       1.0092
   26       2.0032        1.0453       0.9580         0.1751       1.8281
   27      26.4396        0.2283      26.2113         0.4514      25.9882
   28       1.9032        2.2840      -0.3809         0.0528       1.8504
 Sum       31.8161        3.2292      28.5869         0.1722      31.6439

 Contributions to Isotropic shielding for atom   28 (    32.4267 ppm):
                         Standard Origin              Atomic Origin
 NLMO      Total    Paramagnetic  Diamagnetic   Paramagnetic  Diamagnetic
   23       1.3700       -0.0142       1.3842         0.3364       1.0335
   24      -0.1519        0.6802      -0.8321        -1.1070       0.9551
   26       1.9472        1.5756       0.3715         0.0865       1.8606
   27       1.8617        2.0312      -0.1695         0.0142       1.8475
   28      26.3395        0.0406      26.2989         0.4396      25.8999
 Sum       31.3663        4.3134      27.0530        -0.2303      31.5966

 Contributions to Isotropic shielding for atom   29 (    32.8291 ppm):
                         Standard Origin              Atomic Origin
 NLMO      Total    Paramagnetic  Diamagnetic   Paramagnetic  Diamagnetic
   23      -0.1102       -0.0548      -0.0554        -1.0113       0.9011
   24       1.3633       -0.1354       1.4987         0.4422       0.9211
   29      26.3553        0.2428      26.1125         0.3827      25.9726
   30       2.1745        0.2713       1.9032         0.3842       1.7903
   31       2.0162        1.8570       0.1592         0.1602       1.8560
 Sum       31.7991        2.1809      29.6182         0.3580      31.4411

 Contributions to Isotropic shielding for atom   30 (    32.4572 ppm):
                         Standard Origin              Atomic Origin
 NLMO      Total    Paramagnetic  Diamagnetic   Paramagnetic  Diamagnetic
   10       0.0931       -0.4106       0.5037        -1.0382       1.1313
   24       1.4491       -0.4875       1.9366         0.4418       1.0073
   29       2.1539        0.3566       1.7973         0.3575       1.7964
   30      26.2342        0.3154      25.9189         0.3836      25.8506
   31       1.9886        1.5467       0.4419         0.1058       1.8828
 Sum       31.9189        1.3206      30.5983         0.2505      31.6684

 Contributions to Isotropic shielding for atom   31 (    32.5374 ppm):
                         Standard Origin              Atomic Origin
 NLMO      Total    Paramagnetic  Diamagnetic   Paramagnetic  Diamagnetic
   23      -0.1041        0.3100      -0.4142        -1.1064       1.0023
   24       1.1295        1.0019       0.1276         0.1195       1.0100
   28      -0.1060       -1.1736       1.0676        -0.9960       0.8901
   29       2.0124        1.5187       0.4937         0.1400       1.8723
   30       2.0662        1.2131       0.8531         0.1716       1.8946
   31      26.3379       -0.0038      26.3418         0.4075      25.9305
 Sum       31.3359        2.8663      28.4696        -1.2639      32.5998
 
 1\1\GINC-COMPUTE-10-5\SP\RHF\STO-3G\C10H20O1\YTSAI.IQUIR\03-Aug-2021\0
 \\# rhf/STO-3G nmr pop=nbo\\comment\\0,1\C,0,-0.99656208,-0.047702997,
 -3.238785861\C,0,-1.19893119,-0.255419268,-1.738718336\C,0,-0.42199633
 6,-1.554579569,0.291155188\C,0,-1.13574815,0.873350974,0.532747832\C,0
 ,-0.30092496,-0.26873533,1.145362743\C,0,-0.976362512,1.052363687,-0.9
 76298084\C,0,-0.269697449,-1.350321231,-1.214438651\O,0,0.499864584,-2
 .554755725,0.710195277\C,0,1.144868497,0.116441216,1.596016359\C,0,1.1
 18007864,1.134214807,2.747861025\C,0,2.076452986,0.635149457,0.5041095
 99\H,0,0.025946239,0.27511519,-3.462483703\H,0,-1.186448809,-0.9757567
 72,-3.78823103\H,0,-1.683572278,0.714488771,-3.621277331\H,0,-2.237384
 011,-0.576369763,-1.581593303\H,0,-1.425380431,-1.969677293,0.45776661
 8\H,0,-0.937846363,1.825592413,1.03409101\H,0,-2.194628732,0.653269807
 ,0.727836521\H,0,-0.801133457,-0.524019927,2.093167633\H,0,0.013216241
 ,1.456462731,-1.209577103\H,0,-1.699249319,1.803290816,-1.319089135\H,
 0,0.771526645,-1.132544502,-1.472362667\H,0,-0.488888861,-2.298435683,
 -1.72368975\H,0,0.326760283,-2.735632321,1.649883729\H,0,1.613001355,-
 0.78502204,2.012011752\H,0,0.770525315,2.118037351,2.41856804\H,0,0.46
 7209008,0.79289609,3.559564339\H,0,2.122469031,1.264607288,3.166083642
 \H,0,1.739765436,1.59417536,0.102148194\H,0,2.183881107,-0.077966025,-
 0.313804169\H,0,3.081260348,0.797482491,0.911779622\\Version=EM64L-G09
 RevC.01\State=1-A\HF=-459.6135853\RMSD=8.704e-09\Dipole=-0.3733311,0.2
 592817,0.3051592\Quadrupole=0.1021626,-1.7324351,1.6302725,1.7007233,-
 0.0361855,-1.6296104\PG=C01 [X(C10H20O1)]\\@


 SCIENCE IS LONG AND LIFE IS SHORT.

                     DON MOSER IN THE FEBRUARY 1979 SMITHSONIAN
 Job cpu time:  0 days  0 hours  0 minutes 24.2 seconds.
 File lengths (MBytes):  RWF=      5 Int=      0 D2E=      0 Chk=      1 Scr=      1
 Normal termination of Gaussian 09 at Tue Aug  3 16:35:23 2021.
