 Entering Gaussian System, Link 0=g09
 Input=/home/ytsai.iquir/menthol/02_menthol_M0097_MMFF_NMR_rhf_STO-3G_nbo.gjc
 Output=/home/ytsai.iquir/menthol/02_menthol_M0097_MMFF_NMR_rhf_STO-3G_nbo.log
 Initial command:
 /share/apps/Gaussian09/EM64T.SSE4.2-enabled/g09/l1.exe /tmp/Gau-972.inp -scrdir=/tmp/
 Entering Link 1 = /share/apps/Gaussian09/EM64T.SSE4.2-enabled/g09/l1.exe PID=       974.
  
 Copyright (c) 1988,1990,1992,1993,1995,1998,2003,2009,2011,
            Gaussian, Inc.  All Rights Reserved.
  
 This is part of the Gaussian(R) 09 program.  It is based on
 the Gaussian(R) 03 system (copyright 2003, Gaussian, Inc.),
 the Gaussian(R) 98 system (copyright 1998, Gaussian, Inc.),
 the Gaussian(R) 94 system (copyright 1995, Gaussian, Inc.),
 the Gaussian 92(TM) system (copyright 1992, Gaussian, Inc.),
 the Gaussian 90(TM) system (copyright 1990, Gaussian, Inc.),
 the Gaussian 88(TM) system (copyright 1988, Gaussian, Inc.),
 the Gaussian 86(TM) system (copyright 1986, Carnegie Mellon
 University), and the Gaussian 82(TM) system (copyright 1983,
 Carnegie Mellon University). Gaussian is a federally registered
 trademark of Gaussian, Inc.
  
 This software contains proprietary and confidential information,
 including trade secrets, belonging to Gaussian, Inc.
  
 This software is provided under written license and may be
 used, copied, transmitted, or stored only in accord with that
 written license.
  
 The following legend is applicable only to US Government
 contracts under FAR:
  
                    RESTRICTED RIGHTS LEGEND
  
 Use, reproduction and disclosure by the US Government is
 subject to restrictions as set forth in subparagraphs (a)
 and (c) of the Commercial Computer Software - Restricted
 Rights clause in FAR 52.227-19.
  
 Gaussian, Inc.
 340 Quinnipiac St., Bldg. 40, Wallingford CT 06492
  
  
 ---------------------------------------------------------------
 Warning -- This program may not be used in any manner that
 competes with the business of Gaussian, Inc. or will provide
 assistance to any competitor of Gaussian, Inc.  The licensee
 of this program is prohibited from giving any competitor of
 Gaussian, Inc. access to this program.  By using this program,
 the user acknowledges that Gaussian, Inc. is engaged in the
 business of creating and licensing software in the field of
 computational chemistry and represents and warrants to the
 licensee that it is not a competitor of Gaussian, Inc. and that
 it will not use this program in any manner prohibited above.
 ---------------------------------------------------------------
  

 Cite this work as:
 Gaussian 09, Revision C.01,
 M. J. Frisch, G. W. Trucks, H. B. Schlegel, G. E. Scuseria, 
 M. A. Robb, J. R. Cheeseman, G. Scalmani, V. Barone, B. Mennucci, 
 G. A. Petersson, H. Nakatsuji, M. Caricato, X. Li, H. P. Hratchian, 
 A. F. Izmaylov, J. Bloino, G. Zheng, J. L. Sonnenberg, M. Hada, 
 M. Ehara, K. Toyota, R. Fukuda, J. Hasegawa, M. Ishida, T. Nakajima, 
 Y. Honda, O. Kitao, H. Nakai, T. Vreven, J. A. Montgomery, Jr., 
 J. E. Peralta, F. Ogliaro, M. Bearpark, J. J. Heyd, E. Brothers, 
 K. N. Kudin, V. N. Staroverov, T. Keith, R. Kobayashi, J. Normand, 
 K. Raghavachari, A. Rendell, J. C. Burant, S. S. Iyengar, J. Tomasi, 
 M. Cossi, N. Rega, J. M. Millam, M. Klene, J. E. Knox, J. B. Cross, 
 V. Bakken, C. Adamo, J. Jaramillo, R. Gomperts, R. E. Stratmann, 
 O. Yazyev, A. J. Austin, R. Cammi, C. Pomelli, J. W. Ochterski, 
 R. L. Martin, K. Morokuma, V. G. Zakrzewski, G. A. Voth, 
 P. Salvador, J. J. Dannenberg, S. Dapprich, A. D. Daniels, 
 O. Farkas, J. B. Foresman, J. V. Ortiz, J. Cioslowski, 
 and D. J. Fox, Gaussian, Inc., Wallingford CT, 2010.
 
 ******************************************
 Gaussian 09:  EM64L-G09RevC.01 23-Sep-2011
                 3-Aug-2021 
 ******************************************
 %nprocshared=4
 Will use up to    4 processors via shared memory.
 ------------------------
 # rhf/STO-3G nmr pop=nbo
 ------------------------
 1/38=1/1;
 2/12=2,17=6,18=5,40=1/2;
 3/6=3,11=1,16=1,25=1,30=1,116=1/1,2,8,3;
 4//1;
 5/5=2,38=5/2;
 8/6=1,10=90,11=11/1;
 10/13=100,45=16/2;
 6/7=2,8=2,9=2,10=2,28=1,64=1/1,7;
 99/9=1/99;
 -------
 comment
 -------
 Charge =  0 Multiplicity = 1
 Symbolic Z-Matrix:
 6                     0.1098    0.21217  -3.28829 
 6                    -0.85826   0.14062  -2.10575 
 6                    -0.04852  -1.24099  -0.08414 
 6                    -1.20297   1.04883   0.23488 
 6                    -0.62377  -0.21183   0.9199 
 6                    -0.62227   1.31645  -1.14675 
 6                    -0.81552  -1.23377  -1.40892 
 8                     1.33985  -1.07893  -0.33708 
 6                     0.26743   0.13346   2.14919 
 6                     1.48074   1.02108   1.85801 
 6                     0.71     -1.1235    2.90522 
 1                     1.14829   0.0805   -2.96889 
 1                    -0.1184   -0.56642  -4.02394 
 1                     0.03162   1.18043  -3.79421 
 1                    -1.86821   0.25015  -2.52493 
 1                    -0.14985  -2.23977   0.3571 
 1                    -1.08654   1.93531   0.86856 
 1                    -2.28786   0.9134    0.1237 
 1                    -1.50937  -0.70637   1.35107 
 1                     0.44541   1.54578  -1.05709 
 1                    -1.08489   2.2184   -1.5668 
 1                    -0.39513  -1.98674  -2.08671 
 1                    -1.84859  -1.54487  -1.20344 
 1                     1.48932  -0.20642  -0.73213 
 1                    -0.37013   0.70293   2.84075 
 1                     2.2583    0.49641   1.29777 
 1                     1.20476   1.92199   1.3037 
 1                     1.93658   1.35058   2.79897 
 1                     1.41722  -1.72218   2.32287 
 1                    -0.15084  -1.7539    3.15143 
 1                     1.20182  -0.85277   3.84595 
 
                          Input orientation:                          
 ---------------------------------------------------------------------
 Center     Atomic      Atomic             Coordinates (Angstroms)
 Number     Number       Type             X           Y           Z
 ---------------------------------------------------------------------
      1          6           0        0.109798    0.212165   -3.288291
      2          6           0       -0.858258    0.140620   -2.105750
      3          6           0       -0.048522   -1.240988   -0.084138
      4          6           0       -1.202972    1.048828    0.234885
      5          6           0       -0.623770   -0.211834    0.919903
      6          6           0       -0.622273    1.316453   -1.146745
      7          6           0       -0.815517   -1.233771   -1.408919
      8          8           0        1.339847   -1.078932   -0.337080
      9          6           0        0.267434    0.133463    2.149190
     10          6           0        1.480736    1.021083    1.858007
     11          6           0        0.710002   -1.123501    2.905217
     12          1           0        1.148285    0.080496   -2.968890
     13          1           0       -0.118403   -0.566425   -4.023940
     14          1           0        0.031617    1.180426   -3.794208
     15          1           0       -1.868212    0.250152   -2.524935
     16          1           0       -0.149855   -2.239775    0.357098
     17          1           0       -1.086543    1.935307    0.868560
     18          1           0       -2.287855    0.913397    0.123703
     19          1           0       -1.509372   -0.706371    1.351075
     20          1           0        0.445411    1.545783   -1.057093
     21          1           0       -1.084893    2.218398   -1.566804
     22          1           0       -0.395127   -1.986742   -2.086715
     23          1           0       -1.848586   -1.544869   -1.203436
     24          1           0        1.489323   -0.206421   -0.732127
     25          1           0       -0.370132    0.702934    2.840749
     26          1           0        2.258305    0.496408    1.297768
     27          1           0        1.204758    1.921994    1.303700
     28          1           0        1.936580    1.350578    2.798968
     29          1           0        1.417220   -1.722182    2.322867
     30          1           0       -0.150842   -1.753901    3.151431
     31          1           0        1.201817   -0.852773    3.845950
 ---------------------------------------------------------------------
                    Distance matrix (angstroms):
                    1          2          3          4          5
     1  C    0.000000
     2  C    1.529919   0.000000
     3  C    3.521834   2.579037   0.000000
     4  C    3.851770   2.534214   2.584142   0.000000
     5  C    4.292644   3.055125   1.548602   1.547254   0.000000
     6  C    2.518253   1.535566   2.828221   1.522411   2.570350
     7  C    2.545383   1.541542   1.530810   2.839449   2.550399
     8  O    3.448130   3.073625   1.420497   3.364586   2.487501
     9  C    5.440335   4.401336   2.641345   2.581580   1.557120
    10  C    5.386854   4.685880   3.350750   3.136492   2.613249
    11  C    6.364259   5.400670   3.086326   3.938167   2.559601
    12  H    1.094445   2.185141   3.391233   4.090263   4.283497
    13  H    1.095198   2.174109   3.997745   4.682192   4.982241
    14  H    1.095260   2.173468   4.431060   4.216055   4.958908
    15  H    2.120537   1.098963   3.390024   2.949073   3.691744
    16  H    4.400942   3.497676   1.096600   3.455272   2.157288
    17  H    4.656163   3.481312   3.474763   1.095877   2.197046
    18  H    4.228731   2.758875   3.114352   1.098942   2.160847
    19  H    4.998913   3.618147   2.116538   2.102496   1.102164
    20  H    2.620957   2.184883   2.992776   2.152519   2.853223
    21  H    2.900995   2.158468   3.903807   2.151259   3.507474
    22  H    2.556154   2.177274   2.164855   3.906036   3.498904
    23  H    3.356941   2.153090   2.141355   3.035268   2.790292
    24  H    2.934668   2.741973   1.963463   3.123975   2.682238
    25  H    6.167359   5.002231   3.526646   2.757498   2.142611
    26  H    5.072358   4.628551   3.201509   3.662694   2.991780
    27  H    5.020840   4.365052   3.674406   2.775238   2.836201
    28  H    6.456612   5.773333   4.355358   4.064771   3.539408
    29  H    6.077512   5.316059   2.858955   4.347824   2.900879
    30  H    6.738202   5.632727   3.277569   4.179535   2.753425
    31  H    7.295477   6.376008   4.142421   4.736971   3.507894
                    6          7          8          9         10
     6  C    0.000000
     7  C    2.570938   0.000000
     8  O    3.200523   2.412138   0.000000
     9  C    3.613064   3.962607   2.966734   0.000000
    10  C    3.679460   4.585842   3.041105   1.531260   0.000000
    11  C    4.913932   4.577242   3.303208   1.532123   2.507971
    12  H    2.825363   2.831487   2.882255   5.193597   4.928910
    13  H    3.475251   2.787410   3.997761   6.224649   6.298787
    14  H    2.730410   3.497940   4.332194   6.039514   5.837197
    15  H    2.142141   2.134405   4.104244   5.140238   5.569556
    16  H    3.889920   2.138684   2.012126   3.002996   3.942683
    17  H    2.158699   3.911959   4.052972   2.592279   2.899264
    18  H    2.133226   3.021099   4.164364   3.352671   4.149902
    19  H    3.334347   2.894331   3.332675   2.121167   3.490247
    20  H    1.095709   3.072399   2.864885   3.508073   3.137677
    21  H    1.097256   3.466260   4.273637   4.470386   4.443573
    22  H    3.441836   1.096859   2.625924   4.783006   5.303461
    23  H    3.113555   1.098289   3.336732   4.305165   5.200089
    24  H    2.636265   2.612620   0.969371   3.148099   2.866293
    25  H    4.042288   4.691362   4.024633   1.099564   2.119602
    26  H    3.865986   4.446128   2.449079   2.195499   1.092595
    27  H    3.115991   4.625869   3.422859   2.189126   1.093188
    28  H    4.702929   5.653248   4.011659   2.165555   1.096252
    29  H    5.042921   4.376059   2.737714   2.189884   2.783098
    30  H    5.303173   4.637794   3.853239   2.177518   3.469226
    31  H    5.741067   5.641671   4.191413   2.173644   2.746098
                   11         12         13         14         15
    11  C    0.000000
    12  H    6.012223   0.000000
    13  H    7.000701   1.770914   0.000000
    14  H    7.116923   1.771425   1.768267   0.000000
    15  H    6.166090   3.053708   2.444514   2.466944   0.000000
    16  H    2.911758   4.258053   4.689839   5.381826   4.178349
    17  H    4.090459   4.812567   5.579652   4.854023   3.868664
    18  H    4.568690   4.697330   4.909108   4.560842   2.762476
    19  H    2.741346   5.132679   5.553843   5.692854   4.008386
    20  H    4.784871   2.509196   3.685307   2.792223   3.030852
    21  H    5.864205   3.394636   3.837559   2.699132   2.324993
    22  H    5.185160   2.726504   2.417999   3.623341   2.713984
    23  H    4.858493   3.839255   3.450526   4.204105   2.229091
    24  H    3.831273   2.280731   3.681089   3.663959   3.833492
    25  H    2.122901   6.036963   6.985599   6.664237   5.589259
    26  H    2.757760   4.428261   5.924435   5.599486   5.630439
    27  H    3.476302   4.652884   6.027166   5.283451   5.186197
    28  H    2.763485   5.958414   7.379020   6.864970   6.635610
    29  H    1.094398   5.596844   6.631431   6.911125   6.179430
    30  H    1.095025   6.520052   7.273040   7.542246   6.259930
    31  H    1.095515   6.878655   7.984995   7.992202   7.157492
                   16         17         18         19         20
    16  H    0.000000
    17  H    4.309326   0.000000
    18  H    3.816807   1.744209   0.000000
    19  H    2.277631   2.718469   2.176265   0.000000
    20  H    4.084694   2.491335   3.043835   3.833099   0.000000
    21  H    4.944795   2.451762   2.451113   4.153128   1.747582
    22  H    2.469090   4.959251   4.108427   3.833965   3.774302
    23  H    2.409118   4.121348   2.827955   2.709921   3.851749
    24  H    2.829813   3.712720   4.031565   3.685357   2.065327
    25  H    3.857017   2.433417   3.332311   2.345877   4.070464
    26  H    3.764411   3.666423   4.713797   3.955365   3.151689
    27  H    4.477873   2.332292   3.822042   3.778498   2.508284
    28  H    4.817320   3.634234   5.019365   4.266382   4.138949
    29  H    2.566685   4.664876   5.050761   3.246720   4.800848
    30  H    2.836261   4.438164   4.566010   2.486806   5.380995
    31  H    3.990348   4.677054   5.399286   3.687327   5.510450
                   21         22         23         24         25
    21  H    0.000000
    22  H    4.292934   0.000000
    23  H    3.857129   1.757263   0.000000
    24  H    3.633596   2.924996   3.627012   0.000000
    25  H    4.715298   5.613811   4.857353   4.129158   0.000000
    26  H    4.727366   4.966030   5.223925   2.281617   3.054852
    27  H    3.683768   5.415972   5.256214   2.959007   2.515731
    28  H    5.379811   6.359596   6.223370   3.884961   2.396269
    29  H    6.076041   4.774830   4.809547   3.411118   3.056798
    30  H    6.238057   5.249006   4.678771   4.490753   2.486091
    31  H    6.630161   6.247610   5.939718   4.632410   2.429336
                   26         27         28         29         30
    26  H    0.000000
    27  H    1.772651   0.000000
    28  H    1.756905   1.760087   0.000000
    29  H    2.584646   3.789969   3.152501   0.000000
    30  H    3.782056   4.331739   3.757572   1.773793   0.000000
    31  H    3.070780   3.763293   2.547706   1.766933   1.767505
                   31
    31  H    0.000000
 Stoichiometry    C10H20O
 Framework group  C1[X(C10H20O)]
 Deg. of freedom    87
 Full point group                 C1      NOp   1
 Largest Abelian subgroup         C1      NOp   1
 Largest concise Abelian subgroup C1      NOp   1
                         Standard orientation:                         
 ---------------------------------------------------------------------
 Center     Atomic      Atomic             Coordinates (Angstroms)
 Number     Number       Type             X           Y           Z
 ---------------------------------------------------------------------
      1          6           0        3.159209   -0.171319    0.857460
      2          6           0        2.238860    0.180243   -0.313016
      3          6           0       -0.001925   -1.094207   -0.391069
      4          6           0        0.110870    1.445619   -0.854051
      5          6           0       -0.771923    0.175120   -0.831614
      6          6           0        1.328940    1.361073    0.055286
      7          6           0        1.464936   -1.050022   -0.826669
      8          8           0       -0.076675   -1.353394    1.003580
      9          6           0       -2.153108    0.420297   -0.155714
     10          6           0       -2.102466    0.895420    1.299089
     11          6           0       -3.071973   -0.799956   -0.274339
     12          1           0        2.594117   -0.539745    1.719286
     13          1           0        3.876369   -0.946635    0.567588
     14          1           0        3.730414    0.706623    1.177673
     15          1           0        2.892445    0.506728   -1.133963
     16          1           0       -0.469697   -1.960470   -0.874090
     17          1           0       -0.473928    2.341058   -0.614997
     18          1           0        0.468020    1.599452   -1.881890
     19          1           0       -1.010911    0.002971   -1.893694
     20          1           0        1.002788    1.298611    1.099461
     21          1           0        1.904131    2.292419   -0.020348
     22          1           0        1.973363   -1.971165   -0.516676
     23          1           0        1.491560   -1.036431   -1.924551
     24          1           0        0.326756   -0.614613    1.484337
     25          1           0       -2.635010    1.227929   -0.725398
     26          1           0       -1.778260    0.109234    1.985068
     27          1           0       -1.441639    1.757094    1.425127
     28          1           0       -3.101656    1.207241    1.624904
     29          1           0       -2.714361   -1.640257    0.328748
     30          1           0       -3.146340   -1.132486   -1.314999
     31          1           0       -4.083281   -0.554018    0.067604
 ---------------------------------------------------------------------
 Rotational constants (GHZ):      1.8791883      0.7469782      0.6912294
 Standard basis: STO-3G (5D, 7F)
 There are    75 symmetry adapted basis functions of A   symmetry.
 Integral buffers will be    131072 words long.
 Raffenetti 1 integral format.
 Two-electron integral symmetry is turned on.
    75 basis functions,   225 primitive gaussians,    75 cartesian basis functions
    44 alpha electrons       44 beta electrons
       nuclear repulsion energy       706.1290468629 Hartrees.
 NAtoms=   31 NActive=   31 NUniq=   31 SFac= 1.00D+00 NAtFMM=   60 NAOKFM=F Big=F
 One-electron integrals computed using PRISM.
 NBasis=    75 RedAO= T  NBF=    75
 NBsUse=    75 1.00D-06 NBFU=    75
 Harris functional with IExCor=  205 diagonalized for initial guess.
 ExpMin= 1.69D-01 ExpMax= 1.31D+02 ExpMxC= 1.31D+02 IAcc=1 IRadAn=         1 AccDes= 0.00D+00
 HarFok:  IExCor=  205 AccDes= 0.00D+00 IRadAn=         1 IDoV= 1
 ScaDFX=  1.000000  1.000000  1.000000  1.000000
 FoFCou: FMM=F IPFlag=           0 FMFlag=      100000 FMFlg1=           0
         NFxFlg=           0 DoJE=T BraDBF=F KetDBF=T FulRan=T
         Omega=  0.000000  0.000000  1.000000  0.000000  0.000000 ICntrl=     500 IOpCl=  0
         NMat0=    1 NMatS0=    1 NMatT0=    0 NMatD0=    1 NMtDS0=    0 NMtDT0=    0
         I1Cent=           4 NGrid=           0.
 Petite list used in FoFCou.
 Initial guess orbital symmetries:
       Occupied  (A) (A) (A) (A) (A) (A) (A) (A) (A) (A) (A) (A)
                 (A) (A) (A) (A) (A) (A) (A) (A) (A) (A) (A) (A)
                 (A) (A) (A) (A) (A) (A) (A) (A) (A) (A) (A) (A)
                 (A) (A) (A) (A) (A) (A) (A) (A)
       Virtual   (A) (A) (A) (A) (A) (A) (A) (A) (A) (A) (A) (A)
                 (A) (A) (A) (A) (A) (A) (A) (A) (A) (A) (A) (A)
                 (A) (A) (A) (A) (A) (A) (A)
 The electronic state of the initial guess is 1-A.
 Requested convergence on RMS density matrix=1.00D-08 within 128 cycles.
 Requested convergence on MAX density matrix=1.00D-06.
 Requested convergence on             energy=1.00D-06.
 No special actions if energy rises.
 Keep R1 ints in memory in canonical form, NReq=4898789.
 SCF Done:  E(RHF) =  -459.605417259     A.U. after   10 cycles
             Convg  =    0.8833D-08             -V/T =  2.0088
 Range of M.O.s used for correlation:     1    75
 NBasis=    75 NAE=    44 NBE=    44 NFC=     0 NFV=     0
 NROrb=     75 NOA=    44 NOB=    44 NVA=    31 NVB=    31
          Differentiating once with respect to magnetic field using GIAOs.
          Electric field/nuclear overlap derivatives assumed to be zero.
          Keep R3 ints in memory in canonical form, NReq=4863575.
 FoFCou: FMM=F IPFlag=           0 FMFlag=           0 FMFlg1=           0
         NFxFlg=           0 DoJE=F BraDBF=F KetDBF=T FulRan=T
         Omega=  0.000000  0.000000  1.000000  0.000000  0.000000 ICntrl=    6100 IOpCl=  0
         NMat0=    1 NMatS0=    1 NMatT0=    0 NMatD0=    1 NMtDS0=    0 NMtDT0=    0
         I1Cent=           7 NGrid=          31.
 Symmetry not used in FoFCou.
          There are     3 degrees of freedom in the 1st order CPHF.  IDoFFX=0.
      3 vectors produced by pass  0 Test12= 4.55D-14 3.33D-08 XBig12= 6.75D+00 4.33D-01.
 AX will form     3 AO Fock derivatives at one time.
      3 vectors produced by pass  1 Test12= 4.55D-14 3.33D-08 XBig12= 9.64D-03 1.62D-02.
      3 vectors produced by pass  2 Test12= 4.55D-14 3.33D-08 XBig12= 6.81D-05 3.09D-03.
      3 vectors produced by pass  3 Test12= 4.55D-14 3.33D-08 XBig12= 1.68D-06 3.47D-04.
      3 vectors produced by pass  4 Test12= 4.55D-14 3.33D-08 XBig12= 2.43D-08 3.09D-05.
      3 vectors produced by pass  5 Test12= 4.55D-14 3.33D-08 XBig12= 3.41D-10 2.91D-06.
      3 vectors produced by pass  6 Test12= 4.55D-14 3.33D-08 XBig12= 3.24D-12 3.29D-07.
 Inverted reduced A of dimension    21 with in-core refinement.
 Calculating GIAO nuclear magnetic shielding tensors.
 SCF GIAO Magnetic shielding tensor (ppm):
      1  C    Isotropic =   219.9647   Anisotropy =    27.6471
   XX=   224.3567   YX=    -5.9578   ZX=    11.5760
   XY=    -3.8761   YY=   212.7216   ZY=    -2.7609
   XZ=    16.2989   YZ=    -0.4029   ZZ=   222.8158
   Eigenvalues:   208.2821   213.2160   238.3961
      2  C    Isotropic =   216.9935   Anisotropy =     7.7346
   XX=   220.5988   YX=    -0.7006   ZX=     4.0444
   XY=    -2.0760   YY=   218.4952   ZY=     2.3958
   XZ=     3.8241   YZ=     2.9912   ZZ=   211.8865
   Eigenvalues:   209.3768   219.4539   222.1499
      3  C    Isotropic =   189.3801   Anisotropy =    38.5939
   XX=   179.3494   YX=    -5.0544   ZX=    -4.2731
   XY=    -5.8720   YY=   174.7152   ZY=    -5.7872
   XZ=    -2.2622   YZ=    -5.9954   ZZ=   214.0758
   Eigenvalues:   170.0724   182.9586   215.1094
      4  C    Isotropic =   217.9271   Anisotropy =    16.0705
   XX=   223.5759   YX=     6.3020   ZX=     3.1760
   XY=     5.6663   YY=   221.5226   ZY=    -2.5571
   XZ=     0.6337   YZ=    -0.0223   ZZ=   208.6830
   Eigenvalues:   208.0803   217.0603   228.6408
      5  C    Isotropic =   212.2572   Anisotropy =    17.5092
   XX=   222.4138   YX=     2.5120   ZX=    -5.9392
   XY=    -2.9221   YY=   210.0468   ZY=    -2.9447
   XZ=    -4.8999   YZ=    -2.2188   ZZ=   204.3110
   Eigenvalues:   202.0071   210.8345   223.9300
      6  C    Isotropic =   218.2726   Anisotropy =    17.5264
   XX=   222.3630   YX=    -7.7418   ZX=     4.8043
   XY=   -10.4809   YY=   217.7123   ZY=    -0.9051
   XZ=     2.3713   YZ=     1.0898   ZZ=   214.7426
   Eigenvalues:   209.5566   215.3044   229.9569
      7  C    Isotropic =   216.5614   Anisotropy =    11.7340
   XX=   222.0508   YX=     2.7308   ZX=    -0.1817
   XY=     2.5518   YY=   219.9419   ZY=     1.9111
   XZ=     3.6536   YZ=     3.6167   ZZ=   207.6914
   Eigenvalues:   207.0062   218.2938   224.3841
      8  O    Isotropic =   360.8996   Anisotropy =    75.8413
   XX=   359.6536   YX=    23.0060   ZX=    19.8531
   XY=    26.3447   YY=   389.8283   ZY=    40.3788
   XZ=     2.2921   YZ=     3.8317   ZZ=   333.2168
   Eigenvalues:   325.3625   345.8759   411.4604
      9  C    Isotropic =   211.7459   Anisotropy =    18.7120
   XX=   222.5961   YX=     1.6875   ZX=    -3.4757
   XY=     1.0817   YY=   207.4407   ZY=     3.1530
   XZ=    -7.4382   YZ=    -0.4101   ZZ=   205.2010
   Eigenvalues:   202.9766   208.0406   224.2206
     10  C    Isotropic =   223.7801   Anisotropy =    20.9292
   XX=   219.0905   YX=    -0.5894   ZX=    -0.9035
   XY=    -0.6498   YY=   218.2323   ZY=     7.0098
   XZ=     0.1620   YZ=     9.9635   ZZ=   234.0175
   Eigenvalues:   214.4968   219.1105   237.7329
     11  C    Isotropic =   221.6370   Anisotropy =    25.7448
   XX=   225.2290   YX=    12.2239   ZX=     3.0958
   XY=    13.4854   YY=   224.9737   ZY=     5.8186
   XZ=     0.2649   YZ=     3.5555   ZZ=   214.7082
   Eigenvalues:   210.7918   215.3190   238.8002
     12  H    Isotropic =    32.9051   Anisotropy =     9.0956
   XX=    32.7158   YX=     0.2387   ZX=    -0.1349
   XY=     0.6603   YY=    28.5282   ZY=    -3.9209
   XZ=     0.1233   YZ=    -3.9745   ZZ=    37.4712
   Eigenvalues:    27.0043    32.7422    38.9688
     13  H    Isotropic =    32.4102   Anisotropy =    14.3309
   XX=    37.1680   YX=    -7.0153   ZX=     0.8884
   XY=    -6.6350   YY=    32.2148   ZY=     0.9804
   XZ=     1.1820   YZ=     0.5384   ZZ=    27.8477
   Eigenvalues:    26.4009    28.8655    41.9641
     14  H    Isotropic =    32.5161   Anisotropy =    13.8795
   XX=    35.2848   YX=     4.3839   ZX=     5.2004
   XY=     4.6180   YY=    32.6521   ZY=     2.8130
   XZ=     5.5922   YZ=     3.2521   ZZ=    29.6114
   Eigenvalues:    26.3332    29.4461    41.7691
     15  H    Isotropic =    32.4325   Anisotropy =    14.1667
   XX=    34.9967   YX=     2.4837   ZX=    -6.3684
   XY=     2.8103   YY=    28.2241   ZY=    -2.5102
   XZ=    -6.3019   YZ=    -2.5859   ZZ=    34.0766
   Eigenvalues:    27.2318    28.1887    41.8769
     16  H    Isotropic =    31.2600   Anisotropy =    11.5228
   XX=    31.1401   YX=     2.6218   ZX=     1.3680
   XY=     2.8663   YY=    35.1360   ZY=     4.3496
   XZ=     2.1736   YZ=     5.6030   ZZ=    27.5038
   Eigenvalues:    25.0223    29.8157    38.9418
     17  H    Isotropic =    32.5445   Anisotropy =    11.8551
   XX=    32.8923   YX=    -3.5188   ZX=    -0.6028
   XY=    -4.0522   YY=    38.5502   ZY=    -0.5503
   XZ=    -1.1081   YZ=    -0.0573   ZZ=    26.1909
   Eigenvalues:    26.0267    31.1588    40.4479
     18  H    Isotropic =    32.4485   Anisotropy =    13.8026
   XX=    29.4435   YX=     1.7597   ZX=    -2.2081
   XY=     1.6313   YY=    29.3309   ZY=    -5.4118
   XZ=    -1.9203   YZ=    -5.5024   ZZ=    38.5710
   Eigenvalues:    26.6115    29.0837    41.6502
     19  H    Isotropic =    32.3593   Anisotropy =    12.4341
   XX=    30.7560   YX=     1.3167   ZX=     2.4964
   XY=     1.3806   YY=    26.7455   ZY=     1.3724
   XZ=     3.2401   YZ=     1.4793   ZZ=    39.5765
   Eigenvalues:    26.3094    30.1198    40.6487
     20  H    Isotropic =    33.5416   Anisotropy =     8.1843
   XX=    33.1546   YX=    -0.5975   ZX=    -1.2580
   XY=    -0.6852   YY=    29.3270   ZY=     2.0932
   XZ=    -1.0891   YZ=     2.5245   ZZ=    38.1431
   Eigenvalues:    28.7314    32.8955    38.9978
     21  H    Isotropic =    32.4346   Anisotropy =    14.5287
   XX=    32.5392   YX=     5.2461   ZX=     1.1494
   XY=     5.2506   YY=    39.1968   ZY=     0.3995
   XZ=     1.0573   YZ=     0.1799   ZZ=    25.5677
   Eigenvalues:    25.3709    29.8124    42.1204
     22  H    Isotropic =    32.2016   Anisotropy =    13.4495
   XX=    32.3703   YX=    -5.2195   ZX=     0.9584
   XY=    -5.1297   YY=    38.1170   ZY=     0.2943
   XZ=     1.1594   YZ=     0.2948   ZZ=    26.1173
   Eigenvalues:    25.7928    29.6440    41.1679
     23  H    Isotropic =    32.3888   Anisotropy =    13.6468
   XX=    29.3967   YX=    -0.4502   ZX=    -2.1756
   XY=    -0.2122   YY=    27.8729   ZY=     3.5821
   XZ=    -2.5843   YZ=     4.0990   ZZ=    39.8969
   Eigenvalues:    26.6979    28.9819    41.4867
     24  H    Isotropic =    35.4150   Anisotropy =    10.2252
   XX=    32.7670   YX=     4.7157   ZX=     2.8720
   XY=     4.8895   YY=    34.8194   ZY=     3.8681
   XZ=     1.7406   YZ=     1.5329   ZZ=    38.6587
   Eigenvalues:    28.8811    35.1320    42.2318
     25  H    Isotropic =    32.4536   Anisotropy =    12.8046
   XX=    33.6578   YX=    -4.5376   ZX=     3.0718
   XY=    -4.5788   YY=    33.4865   ZY=    -5.0137
   XZ=     2.9944   YZ=    -4.5494   ZZ=    30.2165
   Eigenvalues:    26.7895    29.5813    40.9900
     26  H    Isotropic =    32.5318   Anisotropy =     8.6885
   XX=    30.5260   YX=    -2.4413   ZX=     0.3751
   XY=    -3.1240   YY=    30.5729   ZY=    -3.4390
   XZ=    -0.1595   YZ=    -3.5101   ZZ=    36.4966
   Eigenvalues:    27.0952    32.1761    38.3241
     27  H    Isotropic =    32.7990   Anisotropy =     9.2979
   XX=    32.8838   YX=     3.9934   ZX=    -1.1603
   XY=     3.5286   YY=    34.7059   ZY=     4.3736
   XZ=    -1.0848   YZ=     4.9557   ZZ=    30.8073
   Eigenvalues:    26.2137    33.1857    38.9976
     28  H    Isotropic =    32.5595   Anisotropy =    15.1071
   XX=    37.3666   YX=    -3.8023   ZX=    -5.2940
   XY=    -4.0733   YY=    28.8771   ZY=     3.7202
   XZ=    -5.5560   YZ=     3.7309   ZZ=    31.4349
   Eigenvalues:    26.2165    28.8311    42.6309
     29  H    Isotropic =    32.0785   Anisotropy =     9.0799
   XX=    31.9325   YX=     1.3725   ZX=     0.7278
   XY=     1.2354   YY=    36.0790   ZY=    -4.2971
   XZ=     0.6717   YZ=    -4.3592   ZZ=    28.2241
   Eigenvalues:    26.0716    32.0322    38.1318
     30  H    Isotropic =    32.4656   Anisotropy =    12.9992
   XX=    31.7629   YX=     3.4883   ZX=     3.3678
   XY=     3.2725   YY=    29.5224   ZY=     5.3323
   XZ=     3.2356   YZ=     4.9452   ZZ=    36.1114
   Eigenvalues:    26.2265    30.0386    41.1317
     31  H    Isotropic =    32.4039   Anisotropy =    14.8377
   XX=    41.8216   YX=     1.1164   ZX=    -2.3787
   XY=     1.1358   YY=    27.9059   ZY=     1.0459
   XZ=    -2.5657   YZ=     1.2162   ZZ=    27.4841
   Eigenvalues:    26.1021    28.8138    42.2956
 End of Minotr Frequency-dependent properties file   721 does not exist.
 End of Minotr Frequency-dependent properties file   722 does not exist.

 **********************************************************************

            Population analysis using the SCF density.

 **********************************************************************

 Orbital symmetries:
       Occupied  (A) (A) (A) (A) (A) (A) (A) (A) (A) (A) (A) (A)
                 (A) (A) (A) (A) (A) (A) (A) (A) (A) (A) (A) (A)
                 (A) (A) (A) (A) (A) (A) (A) (A) (A) (A) (A) (A)
                 (A) (A) (A) (A) (A) (A) (A) (A)
       Virtual   (A) (A) (A) (A) (A) (A) (A) (A) (A) (A) (A) (A)
                 (A) (A) (A) (A) (A) (A) (A) (A) (A) (A) (A) (A)
                 (A) (A) (A) (A) (A) (A) (A)
 The electronic state is 1-A.
 Alpha  occ. eigenvalues --  -20.23580 -11.08623 -11.04937 -11.04685 -11.04244
 Alpha  occ. eigenvalues --  -11.04055 -11.03831 -11.03656 -11.03510 -11.02703
 Alpha  occ. eigenvalues --  -11.02526  -1.28010  -1.08034  -1.03705  -0.97067
 Alpha  occ. eigenvalues --   -0.95642  -0.88790  -0.88074  -0.80110  -0.78742
 Alpha  occ. eigenvalues --   -0.73180  -0.68846  -0.63135  -0.61022  -0.59768
 Alpha  occ. eigenvalues --   -0.56792  -0.55007  -0.54146  -0.53722  -0.53257
 Alpha  occ. eigenvalues --   -0.51262  -0.50477  -0.49485  -0.48481  -0.47512
 Alpha  occ. eigenvalues --   -0.45734  -0.43910  -0.43326  -0.42315  -0.41985
 Alpha  occ. eigenvalues --   -0.39448  -0.38697  -0.35957  -0.32439
 Alpha virt. eigenvalues --    0.52198   0.56777   0.57085   0.57972   0.60278
 Alpha virt. eigenvalues --    0.60679   0.61168   0.63726   0.64824   0.65671
 Alpha virt. eigenvalues --    0.67749   0.69348   0.71003   0.71215   0.71834
 Alpha virt. eigenvalues --    0.72188   0.74511   0.74535   0.75405   0.76324
 Alpha virt. eigenvalues --    0.77235   0.77960   0.78357   0.79466   0.80409
 Alpha virt. eigenvalues --    0.80904   0.81983   0.83915   0.85554   0.85749
 Alpha virt. eigenvalues --    0.88025
          Condensed to atoms (all electrons):
              1          2          3          4          5          6
     1  C    4.743274   0.364744   0.000339   0.000739   0.000010  -0.024739
     2  C    0.364744   4.753783  -0.020423  -0.021917  -0.003271   0.362642
     3  C    0.000339  -0.020423   4.736540  -0.021216   0.352203  -0.006803
     4  C    0.000739  -0.021917  -0.021216   4.762710   0.357520   0.363120
     5  C    0.000010  -0.003271   0.352203   0.357520   4.801856  -0.020760
     6  C   -0.024739   0.362642  -0.006803   0.363120  -0.020760   4.760581
     7  C   -0.023700   0.358935   0.356691  -0.006106  -0.024047  -0.021482
     8  O   -0.000144  -0.000360   0.269165   0.000063  -0.016424  -0.000319
     9  C    0.000000   0.000004  -0.017766  -0.021280   0.357902   0.000320
    10  C    0.000000   0.000002  -0.000477  -0.001997  -0.019683  -0.000159
    11  C    0.000000   0.000000  -0.001824   0.000622  -0.021928  -0.000005
    12  H    0.381973  -0.020839   0.000133   0.000010   0.000009  -0.002183
    13  H    0.382815  -0.020056   0.000010  -0.000018  -0.000001   0.001291
    14  H    0.382148  -0.020162  -0.000018   0.000014   0.000000  -0.002241
    15  H   -0.025288   0.383584   0.001201  -0.000403   0.000024  -0.024070
    16  H   -0.000016   0.001151   0.380891   0.001160  -0.024106   0.000029
    17  H   -0.000016   0.001250   0.000921   0.382641  -0.020205  -0.021239
    18  H    0.000007  -0.002360   0.000648   0.382604  -0.022436  -0.024416
    19  H    0.000000   0.000061  -0.023849  -0.026339   0.379444   0.001321
    20  H   -0.004443  -0.022188   0.000342  -0.023593  -0.001636   0.380628
    21  H   -0.000376  -0.021465   0.000036  -0.021183   0.001187   0.383148
    22  H   -0.005860  -0.021482  -0.020974   0.000039   0.001137   0.001028
    23  H    0.001293  -0.022334  -0.021498  -0.000034  -0.001379   0.000591
    24  H   -0.000680   0.000093  -0.041584   0.000113  -0.001921  -0.001084
    25  H    0.000000  -0.000001   0.001069  -0.002192  -0.024012   0.000013
    26  H    0.000000   0.000000   0.000115   0.000033  -0.000881  -0.000008
    27  H    0.000000   0.000001   0.000010  -0.000564  -0.001993  -0.000442
    28  H    0.000000   0.000000  -0.000006   0.000018   0.001108   0.000004
    29  H    0.000000   0.000000  -0.000392  -0.000002  -0.001388   0.000000
    30  H    0.000000   0.000000  -0.000099   0.000015  -0.002357   0.000000
    31  H    0.000000   0.000000   0.000014  -0.000013   0.001165   0.000000
              7          8          9         10         11         12
     1  C   -0.023700  -0.000144   0.000000   0.000000   0.000000   0.381973
     2  C    0.358935  -0.000360   0.000004   0.000002   0.000000  -0.020839
     3  C    0.356691   0.269165  -0.017766  -0.000477  -0.001824   0.000133
     4  C   -0.006106   0.000063  -0.021280  -0.001997   0.000622   0.000010
     5  C   -0.024047  -0.016424   0.357902  -0.019683  -0.021928   0.000009
     6  C   -0.021482  -0.000319   0.000320  -0.000159  -0.000005  -0.002183
     7  C    4.786142  -0.020166   0.000528  -0.000004   0.000006  -0.001810
     8  O   -0.020166   7.850299  -0.000530  -0.001099  -0.000202  -0.000271
     9  C    0.000528  -0.000530   4.734546   0.364041   0.364031   0.000000
    10  C   -0.000004  -0.001099   0.364041   4.747420  -0.025487   0.000000
    11  C    0.000006  -0.000202   0.364031  -0.025487   4.743249   0.000000
    12  H   -0.001810  -0.000271   0.000000   0.000000   0.000000   0.633574
    13  H   -0.002308   0.000006   0.000000   0.000000   0.000000  -0.021745
    14  H    0.001266   0.000002   0.000000   0.000000   0.000000  -0.021831
    15  H   -0.024842  -0.000007   0.000000   0.000000   0.000000   0.001963
    16  H   -0.024302  -0.020922  -0.000338  -0.000008  -0.000289  -0.000008
    17  H    0.000039  -0.000006  -0.005183  -0.000579   0.000038   0.000000
    18  H   -0.000060  -0.000006   0.001194   0.000015  -0.000015  -0.000001
    19  H   -0.000307   0.000588  -0.024251   0.001210  -0.002242   0.000000
    20  H   -0.000057  -0.000773   0.000094  -0.000228  -0.000002   0.000347
    21  H    0.001154   0.000005  -0.000011   0.000003   0.000000   0.000009
    22  H    0.382822  -0.000910  -0.000012   0.000000   0.000000   0.000070
    23  H    0.379944   0.000663   0.000009   0.000000   0.000000   0.000000
    24  H   -0.002423   0.259476   0.000049  -0.000713   0.000035  -0.000370
    25  H   -0.000013  -0.000007   0.382103  -0.025920  -0.024799   0.000000
    26  H    0.000000  -0.000197  -0.019915   0.382728  -0.002627   0.000000
    27  H   -0.000001   0.000016  -0.019778   0.382213   0.001295   0.000000
    28  H    0.000000   0.000016  -0.020138   0.381790  -0.001948   0.000000
    29  H    0.000006   0.000197  -0.020007  -0.002385   0.382847   0.000000
    30  H   -0.000001   0.000009  -0.020391   0.001309   0.381906   0.000000
    31  H    0.000000   0.000001  -0.019994  -0.002072   0.382323   0.000000
             13         14         15         16         17         18
     1  C    0.382815   0.382148  -0.025288  -0.000016  -0.000016   0.000007
     2  C   -0.020056  -0.020162   0.383584   0.001151   0.001250  -0.002360
     3  C    0.000010  -0.000018   0.001201   0.380891   0.000921   0.000648
     4  C   -0.000018   0.000014  -0.000403   0.001160   0.382641   0.382604
     5  C   -0.000001   0.000000   0.000024  -0.024106  -0.020205  -0.022436
     6  C    0.001291  -0.002241  -0.024070   0.000029  -0.021239  -0.024416
     7  C   -0.002308   0.001266  -0.024842  -0.024302   0.000039  -0.000060
     8  O    0.000006   0.000002  -0.000007  -0.020922  -0.000006  -0.000006
     9  C    0.000000   0.000000   0.000000  -0.000338  -0.005183   0.001194
    10  C    0.000000   0.000000   0.000000  -0.000008  -0.000579   0.000015
    11  C    0.000000   0.000000   0.000000  -0.000289   0.000038  -0.000015
    12  H   -0.021745  -0.021831   0.001963  -0.000008   0.000000  -0.000001
    13  H    0.628188  -0.021599  -0.002685   0.000000   0.000000   0.000000
    14  H   -0.021599   0.630358  -0.002348   0.000001  -0.000001   0.000000
    15  H   -0.002685  -0.002348   0.653287  -0.000034  -0.000015   0.000329
    16  H    0.000000   0.000001  -0.000034   0.633951  -0.000024  -0.000029
    17  H    0.000000  -0.000001  -0.000015  -0.000024   0.637515  -0.024286
    18  H    0.000000   0.000000   0.000329  -0.000029  -0.024286   0.650280
    19  H    0.000000   0.000000   0.000002  -0.005215   0.000982  -0.008621
    20  H    0.000052  -0.000082   0.001911  -0.000008  -0.002360   0.002097
    21  H   -0.000015   0.000176  -0.005376   0.000002  -0.002304  -0.002656
    22  H    0.000036   0.000084   0.000869  -0.002190   0.000001   0.000004
    23  H    0.000059  -0.000038  -0.007518  -0.002504   0.000005  -0.000198
    24  H   -0.000002   0.000018   0.000003   0.003736  -0.000024   0.000004
    25  H    0.000000   0.000000   0.000000  -0.000013   0.000035   0.000052
    26  H    0.000000   0.000000   0.000000  -0.000004   0.000024  -0.000002
    27  H    0.000000   0.000000   0.000000  -0.000001  -0.000336   0.000007
    28  H    0.000000   0.000000   0.000000   0.000000  -0.000032   0.000000
    29  H    0.000000   0.000000   0.000000  -0.000569   0.000000   0.000000
    30  H    0.000000   0.000000   0.000000  -0.000046   0.000002  -0.000001
    31  H    0.000000   0.000000   0.000000   0.000008  -0.000003   0.000000
             19         20         21         22         23         24
     1  C    0.000000  -0.004443  -0.000376  -0.005860   0.001293  -0.000680
     2  C    0.000061  -0.022188  -0.021465  -0.021482  -0.022334   0.000093
     3  C   -0.023849   0.000342   0.000036  -0.020974  -0.021498  -0.041584
     4  C   -0.026339  -0.023593  -0.021183   0.000039  -0.000034   0.000113
     5  C    0.379444  -0.001636   0.001187   0.001137  -0.001379  -0.001921
     6  C    0.001321   0.380628   0.383148   0.001028   0.000591  -0.001084
     7  C   -0.000307  -0.000057   0.001154   0.382822   0.379944  -0.002423
     8  O    0.000588  -0.000773   0.000005  -0.000910   0.000663   0.259476
     9  C   -0.024251   0.000094  -0.000011  -0.000012   0.000009   0.000049
    10  C    0.001210  -0.000228   0.000003   0.000000   0.000000  -0.000713
    11  C   -0.002242  -0.000002   0.000000   0.000000   0.000000   0.000035
    12  H    0.000000   0.000347   0.000009   0.000070   0.000000  -0.000370
    13  H    0.000000   0.000052  -0.000015   0.000036   0.000059  -0.000002
    14  H    0.000000  -0.000082   0.000176   0.000084  -0.000038   0.000018
    15  H    0.000002   0.001911  -0.005376   0.000869  -0.007518   0.000003
    16  H   -0.005215  -0.000008   0.000002  -0.002190  -0.002504   0.003736
    17  H    0.000982  -0.002360  -0.002304   0.000001   0.000005  -0.000024
    18  H   -0.008621   0.002097  -0.002656   0.000004  -0.000198   0.000004
    19  H    0.664180  -0.000002  -0.000039  -0.000004   0.000064  -0.000033
    20  H   -0.000002   0.653968  -0.024277  -0.000014  -0.000021  -0.000676
    21  H   -0.000039  -0.024277   0.638298  -0.000025  -0.000028   0.000014
    22  H   -0.000004  -0.000014  -0.000025   0.627848  -0.022571   0.000013
    23  H    0.000064  -0.000021  -0.000028  -0.022571   0.644830  -0.000022
    24  H   -0.000033  -0.000676   0.000014   0.000013  -0.000022   0.606239
    25  H   -0.003850   0.000005  -0.000001   0.000000   0.000000  -0.000006
    26  H   -0.000010  -0.000033   0.000000   0.000000   0.000000  -0.001066
    27  H    0.000022  -0.000191   0.000017   0.000000   0.000000  -0.000050
    28  H   -0.000033   0.000004   0.000000   0.000000   0.000000   0.000014
    29  H    0.000015   0.000000   0.000000   0.000001   0.000000  -0.000030
    30  H    0.000254   0.000000   0.000000   0.000000   0.000000  -0.000002
    31  H    0.000017   0.000000   0.000000   0.000000   0.000000   0.000000
             25         26         27         28         29         30
     1  C    0.000000   0.000000   0.000000   0.000000   0.000000   0.000000
     2  C   -0.000001   0.000000   0.000001   0.000000   0.000000   0.000000
     3  C    0.001069   0.000115   0.000010  -0.000006  -0.000392  -0.000099
     4  C   -0.002192   0.000033  -0.000564   0.000018  -0.000002   0.000015
     5  C   -0.024012  -0.000881  -0.001993   0.001108  -0.001388  -0.002357
     6  C    0.000013  -0.000008  -0.000442   0.000004   0.000000   0.000000
     7  C   -0.000013   0.000000  -0.000001   0.000000   0.000006  -0.000001
     8  O   -0.000007  -0.000197   0.000016   0.000016   0.000197   0.000009
     9  C    0.382103  -0.019915  -0.019778  -0.020138  -0.020007  -0.020391
    10  C   -0.025920   0.382728   0.382213   0.381790  -0.002385   0.001309
    11  C   -0.024799  -0.002627   0.001295  -0.001948   0.382847   0.381906
    12  H    0.000000   0.000000   0.000000   0.000000   0.000000   0.000000
    13  H    0.000000   0.000000   0.000000   0.000000   0.000000   0.000000
    14  H    0.000000   0.000000   0.000000   0.000000   0.000000   0.000000
    15  H    0.000000   0.000000   0.000000   0.000000   0.000000   0.000000
    16  H   -0.000013  -0.000004  -0.000001   0.000000  -0.000569  -0.000046
    17  H    0.000035   0.000024  -0.000336  -0.000032   0.000000   0.000002
    18  H    0.000052  -0.000002   0.000007   0.000000   0.000000  -0.000001
    19  H   -0.003850  -0.000010   0.000022  -0.000033   0.000015   0.000254
    20  H    0.000005  -0.000033  -0.000191   0.000004   0.000000   0.000000
    21  H   -0.000001   0.000000   0.000017   0.000000   0.000000   0.000000
    22  H    0.000000   0.000000   0.000000   0.000000   0.000001   0.000000
    23  H    0.000000   0.000000   0.000000   0.000000   0.000000   0.000000
    24  H   -0.000006  -0.001066  -0.000050   0.000014  -0.000030  -0.000002
    25  H    0.657597   0.001944  -0.001694  -0.003495   0.001919  -0.002058
    26  H    0.001944   0.621419  -0.021855  -0.022138   0.000362   0.000019
    27  H   -0.001694  -0.021855   0.635268  -0.022007   0.000013  -0.000037
    28  H   -0.003495  -0.022138  -0.022007   0.633020  -0.000010   0.000020
    29  H    0.001919   0.000362   0.000013  -0.000010   0.618966  -0.021547
    30  H   -0.002058   0.000019  -0.000037   0.000020  -0.021547   0.634470
    31  H   -0.002962  -0.000026   0.000023   0.000129  -0.021789  -0.021764
             31
     1  C    0.000000
     2  C    0.000000
     3  C    0.000014
     4  C   -0.000013
     5  C    0.001165
     6  C    0.000000
     7  C    0.000000
     8  O    0.000001
     9  C   -0.019994
    10  C   -0.002072
    11  C    0.382323
    12  H    0.000000
    13  H    0.000000
    14  H    0.000000
    15  H    0.000000
    16  H    0.000008
    17  H   -0.000003
    18  H    0.000000
    19  H    0.000017
    20  H    0.000000
    21  H    0.000000
    22  H    0.000000
    23  H    0.000000
    24  H    0.000000
    25  H   -0.002962
    26  H   -0.000026
    27  H    0.000023
    28  H    0.000129
    29  H   -0.021789
    30  H   -0.021764
    31  H    0.632099
 Mulliken atomic charges:
              1
     1  C   -0.172081
     2  C   -0.029394
     3  C    0.076601
     4  C   -0.104565
     5  C   -0.045136
     6  C   -0.104766
     7  C   -0.115900
     8  O   -0.318162
     9  C   -0.015225
    10  C   -0.179920
    11  C   -0.174982
    12  H    0.050970
    13  H    0.055972
    14  H    0.054251
    15  H    0.049413
    16  H    0.059698
    17  H    0.053159
    18  H    0.047846
    19  H    0.046636
    20  H    0.041136
    21  H    0.053706
    22  H    0.060090
    23  H    0.050689
    24  H    0.180878
    25  H    0.046289
    26  H    0.062117
    27  H    0.050065
    28  H    0.053682
    29  H    0.063794
    30  H    0.050299
    31  H    0.052841
 Sum of Mulliken atomic charges =   0.00000
 Mulliken charges with hydrogens summed into heavy atoms:
              1
     1  C   -0.010888
     2  C    0.020018
     3  C    0.136299
     4  C   -0.003560
     5  C    0.001499
     6  C   -0.009923
     7  C   -0.005121
     8  O   -0.137284
     9  C    0.031064
    10  C   -0.014056
    11  C   -0.008048
 Sum of Mulliken charges with hydrogens summed into heavy atoms =   0.00000
 Electronic spatial extent (au):  <R**2>=           1970.3657
 Charge=              0.0000 electrons
 Dipole moment (field-independent basis, Debye):
    X=              0.6282    Y=              1.2199    Z=             -0.7339  Tot=              1.5561
 Quadrupole moment (field-independent basis, Debye-Ang):
   XX=            -67.4293   YY=            -70.0141   ZZ=            -67.1720
   XY=             -0.5901   XZ=              0.4690   YZ=              2.1825
 Traceless Quadrupole moment (field-independent basis, Debye-Ang):
   XX=              0.7758   YY=             -1.8090   ZZ=              1.0332
   XY=             -0.5901   XZ=              0.4690   YZ=              2.1825
 Octapole moment (field-independent basis, Debye-Ang**2):
  XXX=             -0.8009  YYY=             -3.1353  ZZZ=              4.8802  XYY=              1.6964
  XXY=             -0.8577  XXZ=              1.1269  XZZ=              0.8560  YZZ=             -1.4445
  YYZ=             -2.4664  XYZ=             -0.5979
 Hexadecapole moment (field-independent basis, Debye-Ang**3):
 XXXX=          -1659.3699 YYYY=           -501.0871 ZZZZ=           -361.3354 XXXY=             -7.0587
 XXXZ=            -10.9297 YYYX=             -0.1254 YYYZ=             -0.2329 ZZZX=              1.1694
 ZZZY=             -7.5623 XXYY=           -356.5524 XXZZ=           -341.4734 YYZZ=           -150.1895
 XXYZ=             -1.9186 YYXZ=              1.3523 ZZXY=              2.1786
 N-N= 7.061290468629D+02 E-N=-2.484161825304D+03  KE= 4.555814364645D+02
 ******************************Gaussian NBO Version 3.1******************************
             N A T U R A L   A T O M I C   O R B I T A L   A N D
          N A T U R A L   B O N D   O R B I T A L   A N A L Y S I S
 ******************************Gaussian NBO Version 3.1******************************
       /RESON  / : Allow strongly delocalized NBO set
       /NLMO   / : Form Natural Localized Molecular Orbitals
       /NMR /    : Analyze NMR Sheilding Tensor 

 Analyzing the SCF density

 Job title: comment                                                         

 Storage needed:     19864 in NPA,     23691 in NBO,     45933 in NLMO (  33549317 available)


 NATURAL POPULATIONS:  Natural atomic orbital occupancies 
                                                          
   NAO  Atom  No  lang   Type(AO)    Occupancy      Energy
 ----------------------------------------------------------
     1    C    1  S      Cor( 1S)     1.99997     -10.96861
     2    C    1  S      Val( 2S)     1.08115      -0.18599
     3    C    1  px     Val( 2p)     1.01482       0.08005
     4    C    1  py     Val( 2p)     1.02691       0.08021
     5    C    1  pz     Val( 2p)     1.00410       0.08489

     6    C    2  S      Cor( 1S)     1.99997     -10.99259
     7    C    2  S      Val( 2S)     1.08271      -0.19890
     8    C    2  px     Val( 2p)     0.97047       0.10011
     9    C    2  py     Val( 2p)     0.95770       0.10706
    10    C    2  pz     Val( 2p)     0.97979       0.10051

    11    C    3  S      Cor( 1S)     1.99989     -11.03543
    12    C    3  S      Val( 2S)     1.08774      -0.21622
    13    C    3  px     Val( 2p)     0.96552       0.09082
    14    C    3  py     Val( 2p)     0.98494       0.08378
    15    C    3  pz     Val( 2p)     0.81878       0.12837

    16    C    4  S      Cor( 1S)     1.99996     -10.97693
    17    C    4  S      Val( 2S)     1.08571      -0.19292
    18    C    4  px     Val( 2p)     0.98499       0.09524
    19    C    4  py     Val( 2p)     0.99152       0.09353
    20    C    4  pz     Val( 2p)     1.00566       0.08861

    21    C    5  S      Cor( 1S)     1.99995     -10.98678
    22    C    5  S      Val( 2S)     1.10608      -0.21426
    23    C    5  px     Val( 2p)     0.95987       0.10712
    24    C    5  py     Val( 2p)     0.95626       0.11006
    25    C    5  pz     Val( 2p)     1.00282       0.08909

    26    C    6  S      Cor( 1S)     1.99996     -10.98010
    27    C    6  S      Val( 2S)     1.08267      -0.19351
    28    C    6  px     Val( 2p)     0.98762       0.08993
    29    C    6  py     Val( 2p)     1.00058       0.08410
    30    C    6  pz     Val( 2p)     0.99594       0.09211

    31    C    7  S      Cor( 1S)     1.99996     -10.97543
    32    C    7  S      Val( 2S)     1.09441      -0.20034
    33    C    7  px     Val( 2p)     0.98762       0.08998
    34    C    7  py     Val( 2p)     0.99583       0.09052
    35    C    7  pz     Val( 2p)     1.01506       0.08394

    36    O    8  S      Cor( 1S)     1.99999     -20.13833
    37    O    8  S      Val( 2S)     1.74439      -0.99414
    38    O    8  px     Val( 2p)     1.85451      -0.32325
    39    O    8  py     Val( 2p)     1.56138      -0.21238
    40    O    8  pz     Val( 2p)     1.17850      -0.03724

    41    C    9  S      Cor( 1S)     1.99996     -10.99094
    42    C    9  S      Val( 2S)     1.08439      -0.19440
    43    C    9  px     Val( 2p)     0.95489       0.11014
    44    C    9  py     Val( 2p)     0.97486       0.10779
    45    C    9  pz     Val( 2p)     0.95941       0.11503

    46    C   10  S      Cor( 1S)     1.99997     -10.96051
    47    C   10  S      Val( 2S)     1.08024      -0.17832
    48    C   10  px     Val( 2p)     1.03143       0.08375
    49    C   10  py     Val( 2p)     1.02675       0.08802
    50    C   10  pz     Val( 2p)     0.99815       0.09122

    51    C   11  S      Cor( 1S)     1.99997     -10.95906
    52    C   11  S      Val( 2S)     1.08082      -0.17699
    53    C   11  px     Val( 2p)     1.01424       0.08981
    54    C   11  py     Val( 2p)     1.00863       0.09159
    55    C   11  pz     Val( 2p)     1.02777       0.09036

    56    H   12  S      Val( 1S)     0.96636       0.06992

    57    H   13  S      Val( 1S)     0.96153       0.07313

    58    H   14  S      Val( 1S)     0.96319       0.07089

    59    H   15  S      Val( 1S)     0.97479       0.06385

    60    H   16  S      Val( 1S)     0.97566       0.05954

    61    H   17  S      Val( 1S)     0.96768       0.07004

    62    H   18  S      Val( 1S)     0.97276       0.06675

    63    H   19  S      Val( 1S)     0.97763       0.06329

    64    H   20  S      Val( 1S)     0.97883       0.06036

    65    H   21  S      Val( 1S)     0.96663       0.06670

    66    H   22  S      Val( 1S)     0.96086       0.07381

    67    H   23  S      Val( 1S)     0.96913       0.06582

    68    H   24  S      Val( 1S)     0.80728       0.08735

    69    H   25  S      Val( 1S)     0.97895       0.06570

    70    H   26  S      Val( 1S)     0.95613       0.08690

    71    H   27  S      Val( 1S)     0.96684       0.07522

    72    H   28  S      Val( 1S)     0.96294       0.07715

    73    H   29  S      Val( 1S)     0.95474       0.08998

    74    H   30  S      Val( 1S)     0.96670       0.07706

    75    H   31  S      Val( 1S)     0.96417       0.07856


 Summary of Natural Population Analysis:                  
                                                          
                                       Natural Population 
                Natural  -----------------------------------------------
    Atom  No    Charge         Core      Valence    Rydberg      Total
 -----------------------------------------------------------------------
      C    1   -0.12695      1.99997     4.12698    0.00000     6.12695
      C    2    0.00936      1.99997     3.99067    0.00000     5.99064
      C    3    0.14312      1.99989     3.85698    0.00000     5.85688
      C    4   -0.06783      1.99996     4.06787    0.00000     6.06783
      C    5   -0.02498      1.99995     4.02503    0.00000     6.02498
      C    6   -0.06676      1.99996     4.06680    0.00000     6.06676
      C    7   -0.09289      1.99996     4.09293    0.00000     6.09289
      O    8   -0.33877      1.99999     6.33878    0.00000     8.33877
      C    9    0.02648      1.99996     3.97356    0.00000     5.97352
      C   10   -0.13655      1.99997     4.13658    0.00000     6.13655
      C   11   -0.13143      1.99997     4.13146    0.00000     6.13143
      H   12    0.03364      0.00000     0.96636    0.00000     0.96636
      H   13    0.03847      0.00000     0.96153    0.00000     0.96153
      H   14    0.03681      0.00000     0.96319    0.00000     0.96319
      H   15    0.02521      0.00000     0.97479    0.00000     0.97479
      H   16    0.02434      0.00000     0.97566    0.00000     0.97566
      H   17    0.03232      0.00000     0.96768    0.00000     0.96768
      H   18    0.02724      0.00000     0.97276    0.00000     0.97276
      H   19    0.02237      0.00000     0.97763    0.00000     0.97763
      H   20    0.02117      0.00000     0.97883    0.00000     0.97883
      H   21    0.03337      0.00000     0.96663    0.00000     0.96663
      H   22    0.03914      0.00000     0.96086    0.00000     0.96086
      H   23    0.03087      0.00000     0.96913    0.00000     0.96913
      H   24    0.19272      0.00000     0.80728    0.00000     0.80728
      H   25    0.02105      0.00000     0.97895    0.00000     0.97895
      H   26    0.04387      0.00000     0.95613    0.00000     0.95613
      H   27    0.03316      0.00000     0.96684    0.00000     0.96684
      H   28    0.03706      0.00000     0.96294    0.00000     0.96294
      H   29    0.04526      0.00000     0.95474    0.00000     0.95474
      H   30    0.03330      0.00000     0.96670    0.00000     0.96670
      H   31    0.03583      0.00000     0.96417    0.00000     0.96417
 =======================================================================
   * Total *    0.00000     21.99955    66.00045    0.00000    88.00000

                                 Natural Population      
 --------------------------------------------------------
   Core                      21.99955 ( 99.9979% of  22)
   Valence                   66.00045 (100.0007% of  66)
   Natural Minimal Basis     88.00000 (100.0000% of  88)
   Natural Rydberg Basis      0.00000 (  0.0000% of  88)
 --------------------------------------------------------

    Atom  No          Natural Electron Configuration
 ----------------------------------------------------------------------------
      C    1      [core]2S( 1.08)2p( 3.05)
      C    2      [core]2S( 1.08)2p( 2.91)
      C    3      [core]2S( 1.09)2p( 2.77)
      C    4      [core]2S( 1.09)2p( 2.98)
      C    5      [core]2S( 1.11)2p( 2.92)
      C    6      [core]2S( 1.08)2p( 2.98)
      C    7      [core]2S( 1.09)2p( 3.00)
      O    8      [core]2S( 1.74)2p( 4.59)
      C    9      [core]2S( 1.08)2p( 2.89)
      C   10      [core]2S( 1.08)2p( 3.06)
      C   11      [core]2S( 1.08)2p( 3.05)
      H   12            1S( 0.97)
      H   13            1S( 0.96)
      H   14            1S( 0.96)
      H   15            1S( 0.97)
      H   16            1S( 0.98)
      H   17            1S( 0.97)
      H   18            1S( 0.97)
      H   19            1S( 0.98)
      H   20            1S( 0.98)
      H   21            1S( 0.97)
      H   22            1S( 0.96)
      H   23            1S( 0.97)
      H   24            1S( 0.81)
      H   25            1S( 0.98)
      H   26            1S( 0.96)
      H   27            1S( 0.97)
      H   28            1S( 0.96)
      H   29            1S( 0.95)
      H   30            1S( 0.97)
      H   31            1S( 0.96)


 NATURAL BOND ORBITAL ANALYSIS:

                       Occupancies       Lewis Structure    Low   High
           Occ.    -------------------  -----------------   occ   occ
  Cycle   Thresh.   Lewis   Non-Lewis     CR  BD  3C  LP    (L)   (NL)   Dev
 =============================================================================
   1(1)    1.90    87.63452   0.36548     11  31   0   2     0      0    0.02
 -----------------------------------------------------------------------------

 Structure accepted: No low occupancy Lewis orbitals

 --------------------------------------------------------
   Core                     21.99954 ( 99.998% of  22)
   Valence Lewis            65.63498 ( 99.447% of  66)
  ==================       ============================
   Total Lewis              87.63452 ( 99.585% of  88)
  -----------------------------------------------------
   Valence non-Lewis         0.36548 (  0.415% of  88)
   Rydberg non-Lewis         0.00000 (  0.000% of  88)
  ==================       ============================
   Total non-Lewis           0.36548 (  0.415% of  88)
 --------------------------------------------------------


       (Occupancy)   Bond orbital/ Coefficients/ Hybrids
 ---------------------------------------------------------------------------------
     1. (1.99041) BD ( 1) C   1 - C   2  
                ( 50.87%)   0.7132* C   1 s( 25.74%)p 2.88( 74.26%)
                                            0.0001  0.5074 -0.5249  0.1950 -0.6550
                ( 49.13%)   0.7010* C   2 s( 25.01%)p 3.00( 74.99%)
                                            0.0000  0.5001  0.4948 -0.2124  0.6782
     2. (1.99451) BD ( 1) C   1 - H  12  
                ( 51.72%)   0.7191* C   1 s( 24.82%)p 3.03( 75.18%)
                                            0.0000  0.4982 -0.4649 -0.2889  0.6725
                ( 48.28%)   0.6949* H  12 s(100.00%)
                                            1.0000
     3. (1.99473) BD ( 1) C   1 - H  13  
                ( 51.93%)   0.7206* C   1 s( 24.74%)p 3.04( 75.26%)
                                            0.0000  0.4974  0.5594 -0.6156 -0.2463
                ( 48.07%)   0.6933* H  13 s(100.00%)
                                            1.0000
     4. (1.99502) BD ( 1) C   1 - H  14  
                ( 51.85%)   0.7201* C   1 s( 24.70%)p 3.05( 75.30%)
                                            0.0000  0.4970  0.4420  0.7068  0.2411
                ( 48.15%)   0.6939* H  14 s(100.00%)
                                            1.0000
     5. (1.98525) BD ( 1) C   2 - C   6  
                ( 49.55%)   0.7039* C   2 s( 25.35%)p 2.95( 74.65%)
                                            0.0000  0.5034 -0.5333  0.6434  0.2194
                ( 50.45%)   0.7103* C   6 s( 25.44%)p 2.93( 74.56%)
                                            0.0001  0.5044  0.4936 -0.6765 -0.2103
     6. (1.98512) BD ( 1) C   2 - C   7  
                ( 49.66%)   0.7047* C   2 s( 25.40%)p 2.94( 74.60%)
                                            0.0000  0.5040 -0.4576 -0.6874 -0.2531
                ( 50.34%)   0.7095* C   7 s( 25.34%)p 2.95( 74.66%)
                                            0.0001  0.5034  0.4081  0.6939  0.3140
     7. (1.98607) BD ( 1) C   2 - H  15  
                ( 51.17%)   0.7153* C   2 s( 24.24%)p 3.13( 75.76%)
                                            0.0000  0.4923  0.5112  0.2615 -0.6541
                ( 48.83%)   0.6988* H  15 s(100.00%)
                                            1.0000
     8. (1.98255) BD ( 1) C   3 - C   5  
                ( 49.84%)   0.7059* C   3 s( 25.87%)p 2.87( 74.13%)
                                            0.0001  0.5086 -0.4175  0.7238 -0.2075
                ( 50.16%)   0.7083* C   5 s( 25.83%)p 2.87( 74.17%)
                                            0.0000  0.5082  0.4250 -0.6831  0.3074
     9. (1.98723) BD ( 1) C   3 - C   7  
                ( 49.33%)   0.7024* C   3 s( 25.64%)p 2.90( 74.36%)
                                            0.0000  0.5064  0.8272  0.0532 -0.2377
                ( 50.67%)   0.7118* C   7 s( 25.18%)p 2.97( 74.82%)
                                            0.0000  0.5018 -0.8225 -0.0015  0.2678
    10. (1.98869) BD ( 1) C   3 - O   8  
                ( 41.01%)   0.6404* C   3 s( 22.52%)p 3.44( 77.48%)
                                            0.0000  0.4746 -0.0329 -0.1020  0.8737
                ( 58.99%)   0.7680* O   8 s( 16.82%)p 4.95( 83.18%)
                                            0.0000  0.4101  0.0735  0.2319 -0.8790
    11. (1.98634) BD ( 1) C   3 - H  16  
                ( 51.30%)   0.7163* C   3 s( 25.97%)p 2.85( 74.03%)
                                           -0.0001  0.5096 -0.3746 -0.6803 -0.3703
                ( 48.70%)   0.6978* H  16 s(100.00%)
                                            1.0000
    12. (1.98515) BD ( 1) C   4 - C   5  
                ( 50.62%)   0.7115* C   4 s( 25.56%)p 2.91( 74.44%)
                                            0.0001  0.5055 -0.4835 -0.7129  0.0491
                ( 49.38%)   0.7027* C   5 s( 25.18%)p 2.97( 74.82%)
                                            0.0000  0.5018  0.4976  0.7057  0.0504
    13. (1.99052) BD ( 1) C   4 - C   6  
                ( 49.79%)   0.7056* C   4 s( 25.31%)p 2.95( 74.69%)
                                            0.0000  0.5031  0.6774 -0.0660  0.5326
                ( 50.21%)   0.7086* C   6 s( 25.31%)p 2.95( 74.69%)
                                            0.0000  0.5031 -0.6888  0.0344 -0.5208
    14. (1.98953) BD ( 1) C   4 - H  17  
                ( 51.60%)   0.7184* C   4 s( 25.09%)p 2.99( 74.91%)
                                            0.0000  0.5009 -0.4740  0.6915  0.2152
                ( 48.40%)   0.6957* H  17 s(100.00%)
                                            1.0000
    15. (1.99125) BD ( 1) C   4 - H  18  
                ( 51.35%)   0.7166* C   4 s( 24.04%)p 3.16( 75.96%)
                                            0.0000  0.4903  0.2877  0.0963 -0.8171
                ( 48.65%)   0.6975* H  18 s(100.00%)
                                            1.0000
    16. (1.97927) BD ( 1) C   5 - C   9  
                ( 50.41%)   0.7100* C   5 s( 25.98%)p 2.85( 74.02%)
                                            0.0001  0.5097 -0.7307  0.1216  0.4376
                ( 49.59%)   0.7042* C   9 s( 25.42%)p 2.93( 74.58%)
                                            0.0001  0.5042  0.7839 -0.1616 -0.3244
    17. (1.98341) BD ( 1) C   5 - H  19  
                ( 50.93%)   0.7136* C   5 s( 23.00%)p 3.35( 77.00%)
                                            0.0000  0.4796 -0.1944 -0.1437 -0.8435
                ( 49.07%)   0.7005* H  19 s(100.00%)
                                            1.0000
    18. (1.98815) BD ( 1) C   6 - H  20  
                ( 51.07%)   0.7146* C   6 s( 24.61%)p 3.06( 75.39%)
                                            0.0000  0.4961 -0.2642 -0.0788  0.8234
                ( 48.93%)   0.6995* H  20 s(100.00%)
                                            1.0000
    19. (1.98958) BD ( 1) C   6 - H  21  
                ( 51.62%)   0.7185* C   6 s( 24.64%)p 3.06( 75.36%)
                                            0.0000  0.4964  0.4605  0.7314 -0.0813
                ( 48.38%)   0.6956* H  21 s(100.00%)
                                            1.0000
    20. (1.98910) BD ( 1) C   7 - H  22  
                ( 51.92%)   0.7206* C   7 s( 25.33%)p 2.95( 74.67%)
                                            0.0000  0.5033  0.3959 -0.7196  0.2686
                ( 48.08%)   0.6934* H  22 s(100.00%)
                                            1.0000
    21. (1.98958) BD ( 1) C   7 - H  23  
                ( 51.47%)   0.7175* C   7 s( 24.14%)p 3.14( 75.86%)
                                            0.0000  0.4914  0.0163  0.0278 -0.8704
                ( 48.53%)   0.6966* H  23 s(100.00%)
                                            1.0000
    22. (1.98845) BD ( 1) O   8 - H  24  
                ( 59.76%)   0.7731* O   8 s( 17.19%)p 4.82( 82.81%)
                                            0.0000  0.4146  0.3879  0.7118  0.4136
                ( 40.24%)   0.6343* H  24 s(100.00%)
                                            1.0000
    23. (1.99034) BD ( 1) C   9 - C  10  
                ( 49.04%)   0.7003* C   9 s( 25.43%)p 2.93( 74.57%)
                                            0.0000  0.5043  0.0675  0.2426  0.8260
                ( 50.96%)   0.7139* C  10 s( 25.99%)p 2.85( 74.01%)
                                            0.0001  0.5098 -0.0089 -0.2740 -0.8155
    24. (1.98919) BD ( 1) C   9 - C  11  
                ( 49.21%)   0.7015* C   9 s( 25.11%)p 2.98( 74.89%)
                                            0.0000  0.5011 -0.4923 -0.7094 -0.0574
                ( 50.79%)   0.7127* C  11 s( 25.71%)p 2.89( 74.29%)
                                            0.0001  0.5070  0.5253  0.6799  0.0690
    25. (1.98354) BD ( 1) C   9 - H  25  
                ( 50.91%)   0.7135* C   9 s( 24.04%)p 3.16( 75.96%)
                                            0.0000  0.4903 -0.3723  0.6417 -0.4574
                ( 49.09%)   0.7007* H  25 s(100.00%)
                                            1.0000
    26. (1.99535) BD ( 1) C  10 - H  26  
                ( 52.28%)   0.7230* C  10 s( 24.96%)p 3.01( 75.04%)
                                            0.0000  0.4996  0.2672 -0.6366  0.5233
                ( 47.72%)   0.6908* H  26 s(100.00%)
                                            1.0000
    27. (1.99440) BD ( 1) C  10 - H  27  
                ( 51.69%)   0.7189* C  10 s( 24.80%)p 3.03( 75.20%)
                                            0.0000  0.4980  0.5342  0.6787  0.0774
                ( 48.31%)   0.6951* H  27 s(100.00%)
                                            1.0000
    28. (1.99425) BD ( 1) C  10 - H  28  
                ( 51.84%)   0.7200* C  10 s( 24.26%)p 3.12( 75.74%)
                                            0.0000  0.4925 -0.8019  0.2431  0.2350
                ( 48.16%)   0.6940* H  28 s(100.00%)
                                            1.0000
    29. (1.99559) BD ( 1) C  11 - H  29  
                ( 52.32%)   0.7233* C  11 s( 24.97%)p 3.00( 75.03%)
                                            0.0000  0.4997  0.3013 -0.6543  0.4810
                ( 47.68%)   0.6905* H  29 s(100.00%)
                                            1.0000
    30. (1.99502) BD ( 1) C  11 - H  30  
                ( 51.68%)   0.7189* C  11 s( 24.68%)p 3.05( 75.32%)
                                            0.0000  0.4968 -0.0453 -0.2513 -0.8295
                ( 48.32%)   0.6951* H  30 s(100.00%)
                                            1.0000
    31. (1.99472) BD ( 1) C  11 - H  31  
                ( 51.79%)   0.7197* C  11 s( 24.64%)p 3.06( 75.36%)
                                            0.0000  0.4964 -0.7945  0.2157  0.2754
                ( 48.21%)   0.6943* H  31 s(100.00%)
                                            1.0000
    32. (1.99997) CR ( 1) C   1           s(100.00%)
                                            1.0000  0.0000  0.0001  0.0000  0.0000
    33. (1.99996) CR ( 1) C   2           s(100.00%)
                                            1.0000  0.0000  0.0001  0.0000  0.0000
    34. (1.99989) CR ( 1) C   3           s(100.00%)
                                            1.0000  0.0000  0.0000 -0.0001  0.0000
    35. (1.99996) CR ( 1) C   4           s(100.00%)
                                            1.0000  0.0000  0.0000  0.0001 -0.0001
    36. (1.99995) CR ( 1) C   5           s(100.00%)
                                            1.0000  0.0000  0.0000  0.0000 -0.0001
    37. (1.99996) CR ( 1) C   6           s(100.00%)
                                            1.0000  0.0000  0.0000  0.0001  0.0000
    38. (1.99996) CR ( 1) C   7           s(100.00%)
                                            1.0000  0.0000  0.0000 -0.0001  0.0000
    39. (1.99999) CR ( 1) O   8           s(100.00%)
                                            1.0000  0.0000  0.0000  0.0000  0.0000
    40. (1.99996) CR ( 1) C   9           s(100.00%)
                                            1.0000  0.0000 -0.0001  0.0000  0.0000
    41. (1.99997) CR ( 1) C  10           s(100.00%)
                                            1.0000  0.0000  0.0000  0.0000  0.0001
    42. (1.99997) CR ( 1) C  11           s(100.00%)
                                            1.0000  0.0000 -0.0001 -0.0001  0.0000
    43. (1.99204) LP ( 1) O   8           s( 65.99%)p 0.52( 34.01%)
                                            0.0000  0.8123 -0.2441 -0.4756  0.2331
    44. (1.97062) LP ( 2) O   8           s(  0.01%)p 1.00( 99.99%)
                                            0.0000  0.0083  0.8858 -0.4620 -0.0439
    45. (0.00971) BD*( 1) C   1 - C   2  
                ( 49.13%)   0.7010* C   1 s( 25.74%)p 2.88( 74.26%)
                                           -0.0001 -0.5074  0.5249 -0.1950  0.6550
                ( 50.87%)  -0.7132* C   2 s( 25.01%)p 3.00( 74.99%)
                                            0.0000 -0.5001 -0.4948  0.2124 -0.6782
    46. (0.00644) BD*( 1) C   1 - H  12  
                ( 48.28%)   0.6949* C   1 s( 24.82%)p 3.03( 75.18%)
                                            0.0000 -0.4982  0.4649  0.2889 -0.6725
                ( 51.72%)  -0.7191* H  12 s(100.00%)
                                           -1.0000
    47. (0.00501) BD*( 1) C   1 - H  13  
                ( 48.07%)   0.6933* C   1 s( 24.74%)p 3.04( 75.26%)
                                            0.0000 -0.4974 -0.5594  0.6156  0.2463
                ( 51.93%)  -0.7206* H  13 s(100.00%)
                                           -1.0000
    48. (0.00515) BD*( 1) C   1 - H  14  
                ( 48.15%)   0.6939* C   1 s( 24.70%)p 3.05( 75.30%)
                                            0.0000 -0.4970 -0.4420 -0.7068 -0.2411
                ( 51.85%)  -0.7201* H  14 s(100.00%)
                                           -1.0000
    49. (0.01649) BD*( 1) C   2 - C   6  
                ( 50.45%)   0.7103* C   2 s( 25.35%)p 2.95( 74.65%)
                                            0.0000  0.5034 -0.5333  0.6434  0.2194
                ( 49.55%)  -0.7039* C   6 s( 25.44%)p 2.93( 74.56%)
                                            0.0001  0.5044  0.4936 -0.6765 -0.2103
    50. (0.01777) BD*( 1) C   2 - C   7  
                ( 50.34%)   0.7095* C   2 s( 25.40%)p 2.94( 74.60%)
                                            0.0000  0.5040 -0.4576 -0.6874 -0.2531
                ( 49.66%)  -0.7047* C   7 s( 25.34%)p 2.95( 74.66%)
                                            0.0001  0.5034  0.4081  0.6939  0.3140
    51. (0.00965) BD*( 1) C   2 - H  15  
                ( 48.83%)   0.6988* C   2 s( 24.24%)p 3.13( 75.76%)
                                            0.0000 -0.4923 -0.5112 -0.2615  0.6541
                ( 51.17%)  -0.7153* H  15 s(100.00%)
                                           -1.0000
    52. (0.03626) BD*( 1) C   3 - C   5  
                ( 50.16%)   0.7083* C   3 s( 25.87%)p 2.87( 74.13%)
                                            0.0001  0.5086 -0.4175  0.7238 -0.2075
                ( 49.84%)  -0.7059* C   5 s( 25.83%)p 2.87( 74.17%)
                                            0.0000  0.5082  0.4250 -0.6831  0.3074
    53. (0.02718) BD*( 1) C   3 - C   7  
                ( 50.67%)   0.7118* C   3 s( 25.64%)p 2.90( 74.36%)
                                            0.0000  0.5064  0.8272  0.0532 -0.2377
                ( 49.33%)  -0.7024* C   7 s( 25.18%)p 2.97( 74.82%)
                                            0.0000  0.5018 -0.8225 -0.0015  0.2678
    54. (0.02384) BD*( 1) C   3 - O   8  
                ( 58.99%)   0.7680* C   3 s( 22.52%)p 3.44( 77.48%)
                                            0.0000  0.4746 -0.0329 -0.1020  0.8737
                ( 41.01%)  -0.6404* O   8 s( 16.82%)p 4.95( 83.18%)
                                            0.0000  0.4101  0.0735  0.2319 -0.8790
    55. (0.01634) BD*( 1) C   3 - H  16  
                ( 48.70%)   0.6978* C   3 s( 25.97%)p 2.85( 74.03%)
                                            0.0001 -0.5096  0.3746  0.6803  0.3703
                ( 51.30%)  -0.7163* H  16 s(100.00%)
                                           -1.0000
    56. (0.01806) BD*( 1) C   4 - C   5  
                ( 49.38%)   0.7027* C   4 s( 25.56%)p 2.91( 74.44%)
                                           -0.0001 -0.5055  0.4835  0.7129 -0.0491
                ( 50.62%)  -0.7115* C   5 s( 25.18%)p 2.97( 74.82%)
                                            0.0000 -0.5018 -0.4976 -0.7057 -0.0504
    57. (0.01138) BD*( 1) C   4 - C   6  
                ( 50.21%)   0.7086* C   4 s( 25.31%)p 2.95( 74.69%)
                                            0.0000  0.5031  0.6774 -0.0660  0.5326
                ( 49.79%)  -0.7056* C   6 s( 25.31%)p 2.95( 74.69%)
                                            0.0000  0.5031 -0.6888  0.0344 -0.5208
    58. (0.00933) BD*( 1) C   4 - H  17  
                ( 48.40%)   0.6957* C   4 s( 25.09%)p 2.99( 74.91%)
                                            0.0000 -0.5009  0.4740 -0.6915 -0.2152
                ( 51.60%)  -0.7184* H  17 s(100.00%)
                                           -1.0000
    59. (0.00777) BD*( 1) C   4 - H  18  
                ( 48.65%)   0.6975* C   4 s( 24.04%)p 3.16( 75.96%)
                                            0.0000 -0.4903 -0.2877 -0.0963  0.8171
                ( 51.35%)  -0.7166* H  18 s(100.00%)
                                           -1.0000
    60. (0.02222) BD*( 1) C   5 - C   9  
                ( 49.59%)   0.7042* C   5 s( 25.98%)p 2.85( 74.02%)
                                           -0.0001 -0.5097  0.7307 -0.1216 -0.4376
                ( 50.41%)  -0.7100* C   9 s( 25.42%)p 2.93( 74.58%)
                                           -0.0001 -0.5042 -0.7839  0.1616  0.3244
    61. (0.00844) BD*( 1) C   5 - H  19  
                ( 49.07%)   0.7005* C   5 s( 23.00%)p 3.35( 77.00%)
                                            0.0000 -0.4796  0.1944  0.1437  0.8435
                ( 50.93%)  -0.7136* H  19 s(100.00%)
                                           -1.0000
    62. (0.01180) BD*( 1) C   6 - H  20  
                ( 48.93%)   0.6995* C   6 s( 24.61%)p 3.06( 75.39%)
                                            0.0000 -0.4961  0.2642  0.0788 -0.8234
                ( 51.07%)  -0.7146* H  20 s(100.00%)
                                           -1.0000
    63. (0.00783) BD*( 1) C   6 - H  21  
                ( 48.38%)   0.6956* C   6 s( 24.64%)p 3.06( 75.36%)
                                            0.0000 -0.4964 -0.4605 -0.7314  0.0813
                ( 51.62%)  -0.7185* H  21 s(100.00%)
                                           -1.0000
    64. (0.00871) BD*( 1) C   7 - H  22  
                ( 48.08%)   0.6934* C   7 s( 25.33%)p 2.95( 74.67%)
                                            0.0000 -0.5033 -0.3959  0.7196 -0.2686
                ( 51.92%)  -0.7206* H  22 s(100.00%)
                                           -1.0000
    65. (0.00713) BD*( 1) C   7 - H  23  
                ( 48.53%)   0.6966* C   7 s( 24.14%)p 3.14( 75.86%)
                                            0.0000 -0.4914 -0.0163 -0.0278  0.8704
                ( 51.47%)  -0.7175* H  23 s(100.00%)
                                           -1.0000
    66. (0.01205) BD*( 1) O   8 - H  24  
                ( 40.24%)   0.6343* O   8 s( 17.19%)p 4.82( 82.81%)
                                            0.0000 -0.4146 -0.3879 -0.7118 -0.4136
                ( 59.76%)  -0.7731* H  24 s(100.00%)
                                           -1.0000
    67. (0.01147) BD*( 1) C   9 - C  10  
                ( 50.96%)   0.7139* C   9 s( 25.43%)p 2.93( 74.57%)
                                            0.0000  0.5043  0.0675  0.2426  0.8260
                ( 49.04%)  -0.7003* C  10 s( 25.99%)p 2.85( 74.01%)
                                            0.0001  0.5098 -0.0089 -0.2740 -0.8155
    68. (0.01030) BD*( 1) C   9 - C  11  
                ( 50.79%)   0.7127* C   9 s( 25.11%)p 2.98( 74.89%)
                                            0.0000  0.5011 -0.4923 -0.7094 -0.0574
                ( 49.21%)  -0.7015* C  11 s( 25.71%)p 2.89( 74.29%)
                                            0.0001  0.5070  0.5253  0.6799  0.0690
    69. (0.01024) BD*( 1) C   9 - H  25  
                ( 49.09%)   0.7007* C   9 s( 24.04%)p 3.16( 75.96%)
                                            0.0000 -0.4903  0.3723 -0.6417  0.4574
                ( 50.91%)  -0.7135* H  25 s(100.00%)
                                           -1.0000
    70. (0.00749) BD*( 1) C  10 - H  26  
                ( 47.72%)   0.6908* C  10 s( 24.96%)p 3.01( 75.04%)
                                            0.0000 -0.4996 -0.2672  0.6366 -0.5233
                ( 52.28%)  -0.7230* H  26 s(100.00%)
                                           -1.0000
    71. (0.00634) BD*( 1) C  10 - H  27  
                ( 48.31%)   0.6951* C  10 s( 24.80%)p 3.03( 75.20%)
                                            0.0000 -0.4980 -0.5342 -0.6787 -0.0774
                ( 51.69%)  -0.7189* H  27 s(100.00%)
                                           -1.0000
    72. (0.00476) BD*( 1) C  10 - H  28  
                ( 48.16%)   0.6940* C  10 s( 24.26%)p 3.12( 75.74%)
                                            0.0000 -0.4925  0.8019 -0.2431 -0.2350
[...]

 Contributions to Isotropic shielding for atom    8 (   360.8996 ppm):
                         Standard Origin              Atomic Origin
 NLMO      Total    Paramagnetic  Diamagnetic   Paramagnetic  Diamagnetic
   10      20.0287        6.7807      13.2480         9.4439      10.5848
   11       1.2315        0.5234       0.7081        -0.0595       1.2911
   16      -0.2880       -0.4988       0.2107        -1.1360       0.8479
   18      -0.4694       -0.8301       0.3607        -1.1086       0.6392
   20      -0.3069       -0.9005       0.5935        -1.1766       0.8696
   21      -0.6565       -1.0972       0.4407        -1.0029       0.3464
   22      28.9114       12.8655      16.0459        14.3226      14.5888
   26      -0.5280       -1.2771       0.7491        -1.0630       0.5350
   29      -0.2333       -1.0254       0.7921        -0.7288       0.4955
   39     271.1845       -0.0053     271.1899        -0.0021     271.1867
   43      34.1937        2.9070      31.2868        -3.2158      37.4096
   44       5.4453      -33.4581      38.9035       -34.3667      39.8120
 Sum      358.5130      -16.0159     374.5289       -20.0935     378.6065

 Contributions to Isotropic shielding for atom    9 (   211.7460 ppm):
                         Standard Origin              Atomic Origin
 NLMO      Total    Paramagnetic  Diamagnetic   Paramagnetic  Diamagnetic
   10      -0.0296       -0.3275       0.2979        -1.2244       1.1948
   14      -0.4478       -0.9225       0.4747        -1.4330       0.9852
   16       5.1732       -9.0223      14.1954        -2.4229       7.5961
   23       0.0738       -6.9009       6.9747        -7.4812       7.5550
   24      -2.3498       -5.7975       3.4477        -9.9406       7.5907
   25       4.3190       -0.5801       4.8991        -6.4816      10.8006
   26       0.7582       -0.3376       1.0959        -0.2605       1.0188
   27       0.5828       -0.5017       1.0844        -0.4171       0.9999
   28       0.5994       -0.0947       0.6942        -0.4382       1.0377
   29       0.9911       -0.4391       1.4302        -0.0552       1.0463
   30       0.6600       -0.5875       1.2475        -0.3788       1.0388
   31       0.6220       -0.3426       0.9646        -0.4127       1.0347
   40     199.9265       -0.0028     199.9293         0.0032     199.9234
 Sum      210.8789      -25.8566     236.7355       -30.9432     241.8221

 Contributions to Isotropic shielding for atom   10 (   223.7801 ppm):
                         Standard Origin              Atomic Origin
 NLMO      Total    Paramagnetic  Diamagnetic   Paramagnetic  Diamagnetic
   23       3.5879       -8.5687      12.1565        -4.3894       7.9773
   24      -0.3429       -0.1485      -0.1944        -1.0076       0.6647
   25       0.3148       -0.0231       0.3379        -0.7117       1.0265
   26       6.6967       -5.5397      12.2363        -4.5956      11.2923
   27       6.9083       -4.9553      11.8637        -4.1478      11.0562
   28       5.9396        3.2974       2.6422        -5.1301      11.0697
   41     200.0749       -0.0019     200.0769         0.0012     200.0737
 Sum      223.1793      -15.9398     239.1191       -19.9810     243.1603

 Contributions to Isotropic shielding for atom   11 (   221.6370 ppm):
                         Standard Origin              Atomic Origin
 NLMO      Total    Paramagnetic  Diamagnetic   Paramagnetic  Diamagnetic
   10       0.0117       -0.0788       0.0904        -1.1113       1.1229
   23      -0.4422       -0.0090      -0.4332        -1.1322       0.6900
   24       4.4734      -10.8312      15.3046        -3.4055       7.8789
   29       6.3990       -6.0906      12.4896        -4.9181      11.3171
   30       5.7029       -2.6143       8.3172        -5.3527      11.0555
   31       5.1544        2.6566       2.4977        -5.9364      11.0907
   42     200.0741       -0.0035     200.0775         0.0021     200.0720
 Sum      221.3732      -16.9708     238.3440       -21.8539     243.2272

 Contributions to Isotropic shielding for atom   12 (    32.9051 ppm):
                         Standard Origin              Atomic Origin
 NLMO      Total    Paramagnetic  Diamagnetic   Paramagnetic  Diamagnetic
    1       1.7281       -1.3719       3.1000         0.8568       0.8713
    2      26.3753        0.3847      25.9906         0.3905      25.9849
    3       1.9458        1.3317       0.6141         0.1148       1.8310
    4       1.9743        1.2355       0.7388         0.1459       1.8284
 Sum       32.0235        1.5800      30.4435         1.5080      30.5155

 Contributions to Isotropic shielding for atom   13 (    32.4102 ppm):
                         Standard Origin              Atomic Origin
 NLMO      Total    Paramagnetic  Diamagnetic   Paramagnetic  Diamagnetic
    1       1.2935       -0.0049       1.2984         0.3172       0.9763
    2       2.0028        0.9224       1.0804         0.1638       1.8390
    3      26.3274        0.1243      26.2031         0.4643      25.8631
    4       1.8825        2.3913      -0.5088         0.0370       1.8455
    6      -0.1295        0.4509      -0.5805        -1.0463       0.9168
 Sum       31.3766        3.8840      27.4926        -0.0640      31.4407

 Contributions to Isotropic shielding for atom   14 (    32.5161 ppm):
                         Standard Origin              Atomic Origin
 NLMO      Total    Paramagnetic  Diamagnetic   Paramagnetic  Diamagnetic
    1       1.3194       -0.1019       1.4213         0.3273       0.9921
    2       2.0195        0.8492       1.1703         0.1877       1.8318
    3       1.8463        2.3955      -0.5492         0.0042       1.8422
    4      26.3652        0.1513      26.2139         0.4602      25.9049
    5      -0.1074        0.4727      -0.5801        -1.0812       0.9738
 Sum       31.4430        3.7668      27.6762        -0.1017      31.5447

 Contributions to Isotropic shielding for atom   15 (    32.4325 ppm):
                         Standard Origin              Atomic Origin
 NLMO      Total    Paramagnetic  Diamagnetic   Paramagnetic  Diamagnetic
    1       0.7971        2.4481      -1.6510        -0.2435       1.0407
    5       1.3412        0.9758       0.3654         0.3680       0.9732
    6       1.2738        0.9882       0.2856         0.1998       1.0740
    7      26.4806       -0.3469      26.8274         0.4641      26.0164
   19       0.0160       -0.0150       0.0309        -1.0378       1.0538
   21      -0.1518       -0.1942       0.0424        -1.3419       1.1901
 Sum       29.7569        3.8561      25.9008        -1.5913      31.3483

 Contributions to Isotropic shielding for atom   16 (    31.2600 ppm):
                         Standard Origin              Atomic Origin
 NLMO      Total    Paramagnetic  Diamagnetic   Paramagnetic  Diamagnetic
    8       0.8749        0.3788       0.4961        -0.2015       1.0764
    9       0.6019        0.8648      -0.2629        -0.4401       1.0420
   10       0.9687        0.8386       0.1300        -1.1300       2.0986
   11      26.3842        0.3154      26.0688         0.7908      25.5934
   17       0.0260       -0.2959       0.3219        -1.0220       1.0480
   21       0.2430       -0.3586       0.6016        -0.7989       1.0419
 Sum       29.0987        1.7432      27.3555        -2.8017      31.9004

 Contributions to Isotropic shielding for atom   17 (    32.5445 ppm):
                         Standard Origin              Atomic Origin
 NLMO      Total    Paramagnetic  Diamagnetic   Paramagnetic  Diamagnetic
   12       1.3769        0.4045       0.9724         0.4671       0.9098
   13       1.0948        0.9387       0.1560         0.1313       0.9635
   14      26.3672        0.0559      26.3113         0.4777      25.8894
   15       2.0376        1.7809       0.2567         0.2589       1.7786
   16      -0.1622       -0.0924      -0.0699        -1.3329       1.1706
 Sum       30.7142        3.0877      27.6265         0.0022      30.7120

 Contributions to Isotropic shielding for atom   18 (    32.4485 ppm):
                         Standard Origin              Atomic Origin
 NLMO      Total    Paramagnetic  Diamagnetic   Paramagnetic  Diamagnetic
   12       1.3807        0.4499       0.9308         0.3372       1.0435
   13       1.0778        1.0368       0.0410         0.0757       1.0021
   14       1.9864        1.6739       0.3124         0.1471       1.8393
   15      26.4749       -0.0733      26.5482         0.4338      26.0411
   17      -0.2059       -0.3848       0.1789        -1.3715       1.1656
 Sum       30.7139        2.7026      28.0114        -0.3777      31.0916

 Contributions to Isotropic shielding for atom   19 (    32.3593 ppm):
                         Standard Origin              Atomic Origin
 NLMO      Total    Paramagnetic  Diamagnetic   Paramagnetic  Diamagnetic
    8       1.3886        1.0186       0.3701         0.2593       1.1293
   11       0.0580       -0.3311       0.3891        -1.0227       1.0807
   12       1.0901        1.1585      -0.0684        -0.1066       1.1967
   15      -0.1672       -0.7716       0.6044        -1.3673       1.2001
   16       1.0502        1.4955      -0.4453        -0.2082       1.2584
   17      26.5268       -0.2782      26.8049         0.4113      26.1154
   30      -0.1275       -1.3741       1.2466        -1.0025       0.8750
 Sum       29.8190        0.9177      28.9013        -3.0366      32.8556

 Contributions to Isotropic shielding for atom   20 (    33.5416 ppm):
                         Standard Origin              Atomic Origin
 NLMO      Total    Paramagnetic  Diamagnetic   Paramagnetic  Diamagnetic
    1      -0.0808       -0.6400       0.5592        -1.1285       1.0476
    2      -0.0242       -1.0306       1.0064        -0.9536       0.9294
    5       1.3745        0.4857       0.8888         0.5775       0.7969
   10      -0.0047       -0.1834       0.1787        -1.0212       1.0166
   13       1.3995       -0.1133       1.5128         0.4724       0.9271
   18      26.6031        0.2541      26.3489         0.3843      26.2187
   19       2.0374        1.6627       0.3748         0.2303       1.8072
 Sum       31.3047        0.4352      30.8695        -1.4388      32.7435

 Contributions to Isotropic shielding for atom   21 (    32.4346 ppm):
                         Standard Origin              Atomic Origin
 NLMO      Total    Paramagnetic  Diamagnetic   Paramagnetic  Diamagnetic
    4      -0.0841       -1.0894       1.0053        -0.9369       0.8528
    5       0.9929        1.4202      -0.4273         0.0104       0.9825
    7       0.0652       -0.2811       0.3463        -0.9720       1.0372
   13       1.1393        1.0157       0.1236         0.1495       0.9898
   15       0.2473        0.1175       0.1299        -0.7592       1.0066
   18       2.0910        1.1730       0.9180         0.3245       1.7665
   19      26.3595       -0.0866      26.4461         0.4558      25.9037
 Sum       30.8111        2.2693      28.5418        -1.7280      32.5391

 Contributions to Isotropic shielding for atom   22 (    32.2016 ppm):
                         Standard Origin              Atomic Origin
 NLMO      Total    Paramagnetic  Diamagnetic   Paramagnetic  Diamagnetic
    1      -0.1975       -0.3468       0.1492        -1.3366       1.1390
    3      -0.0475       -1.2764       1.2289        -0.9933       0.9458
    6       1.0762        1.2107      -0.1345         0.1335       0.9427
    9       1.3283        0.4835       0.8447         0.3913       0.9369
   10      -0.0975        0.1132      -0.2108        -1.4651       1.3676
   20      26.1731        0.0465      26.1266         0.4878      25.6852
   21       2.0344        1.7292       0.3052         0.2970       1.7374
 Sum       30.2694        1.9600      28.3094        -2.4853      32.7546

 Contributions to Isotropic shielding for atom   23 (    32.3888 ppm):
                         Standard Origin              Atomic Origin
 NLMO      Total    Paramagnetic  Diamagnetic   Paramagnetic  Diamagnetic
    6       1.1356        0.9024       0.2332         0.0920       1.0436
    7      -0.0829       -0.6849       0.6020        -1.2298       1.1469
    9       1.4633        0.3990       1.0643         0.5284       0.9348
   20       1.9433        1.7547       0.1886         0.1207       1.8226
   21      26.4049        0.0293      26.3756         0.4262      25.9787
 Sum       30.8642        2.4004      28.4637        -0.0624      30.9266

 Contributions to Isotropic shielding for atom   24 (    35.4150 ppm):
                         Standard Origin              Atomic Origin
 NLMO      Total    Paramagnetic  Diamagnetic   Paramagnetic  Diamagnetic
    2      -0.3474       -1.3683       1.0209        -0.7504       0.4030
   10       2.2980        1.2557       1.0423         1.6728       0.6252
   22      22.7230       -0.4027      23.1257        -0.3745      23.0975
   26      -0.3383       -1.1643       0.8261        -0.8861       0.5479
   43       3.5762        1.7262       1.8500         1.5833       1.9929
   44       5.3982        2.2933       3.1049         2.2173       3.1809
 Sum       33.3097        2.3399      30.9698         3.4624      29.8474

 Contributions to Isotropic shielding for atom   25 (    32.4536 ppm):
                         Standard Origin              Atomic Origin
 NLMO      Total    Paramagnetic  Diamagnetic   Paramagnetic  Diamagnetic
   16       1.5702        0.3428       1.2274         0.5387       1.0315
   23       0.9756        1.5564      -0.5808        -0.1051       1.0807
   24       0.8031        2.1913      -1.3882        -0.2364       1.0395
   25      26.6073       -0.2058      26.8131         0.4834      26.1239
   28       0.1912       -0.2343       0.4255        -0.8329       1.0241
 Sum       30.1475        3.6503      26.4971        -0.1523      30.2998

 Contributions to Isotropic shielding for atom   26 (    32.5318 ppm):
                         Standard Origin              Atomic Origin
 NLMO      Total    Paramagnetic  Diamagnetic   Paramagnetic  Diamagnetic
   22      -0.1175       -0.1354       0.0179        -1.1812       1.0637
   23       1.4680       -0.4388       1.9067         0.5374       0.9305
   24      -0.1104       -0.0982      -0.0122        -1.0149       0.9045
   26      26.1198        0.2883      25.8316         0.3914      25.7284
   27       2.1131        0.2542       1.8589         0.2952       1.8179
   28       1.9899        1.8692       0.1207         0.1126       1.8773
 Sum       31.4630        1.7394      29.7236        -0.8594      32.3223

 Contributions to Isotropic shielding for atom   27 (    32.7990 ppm):
                         Standard Origin              Atomic Origin
 NLMO      Total    Paramagnetic  Diamagnetic   Paramagnetic  Diamagnetic
   12      -0.1005       -0.0633      -0.0372        -1.0574       0.9569
   23       1.4647       -0.4725       1.9372         0.4625       1.0022
   26       2.1338        0.2407       1.8931         0.2828       1.8509
   27      26.4019        0.2717      26.1303         0.3650      26.0369
   28       1.9645        1.8689       0.0956         0.1082       1.8563
 Sum       31.8644        1.8455      30.0189         0.1612      31.7032

 Contributions to Isotropic shielding for atom   28 (    32.5595 ppm):
                         Standard Origin              Atomic Origin
 NLMO      Total    Paramagnetic  Diamagnetic   Paramagnetic  Diamagnetic
   23       1.1155        1.0791       0.0364         0.0594       1.0561
   24      -0.1165        0.4282      -0.5446        -1.0297       0.9133
   26       2.0363        1.4889       0.5474         0.1390       1.8973
   27       2.0490        1.5272       0.5218         0.1832       1.8658
   28      26.3352       -0.0398      26.3749         0.4042      25.9310
 Sum       31.4195        4.4835      26.9359        -0.2439      31.6634

 Contributions to Isotropic shielding for atom   29 (    32.0785 ppm):
                         Standard Origin              Atomic Origin
 NLMO      Total    Paramagnetic  Diamagnetic   Paramagnetic  Diamagnetic
    8      -0.1089        0.0773      -0.1863        -1.0925       0.9836
   10      -0.0040        0.0040      -0.0080        -1.3285       1.3245
   24       1.5937       -1.1732       2.7670         0.6825       0.9112
   29      26.0756        0.3477      25.7279         0.4097      25.6659
   30       2.0098        0.8025       1.2073         0.1959       1.8140
   31       1.9085        1.8106       0.0979         0.0620       1.8465
 Sum       31.4749        1.8690      29.6058        -1.0709      32.5458

 Contributions to Isotropic shielding for atom   30 (    32.4656 ppm):
                         Standard Origin              Atomic Origin
 NLMO      Total    Paramagnetic  Diamagnetic   Paramagnetic  Diamagnetic
   16      -0.0370        0.1730      -0.2100        -1.0015       0.9645
   24       1.4803       -0.4833       1.9636         0.4823       0.9980
   29       2.0688        0.6322       1.4366         0.2134       1.8554
   30      26.4137        0.2228      26.1909         0.4136      26.0001
   31       1.9152        2.3697      -0.4545         0.0744       1.8408
 Sum       31.8410        2.9145      28.9265         0.1823      31.6587

 Contributions to Isotropic shielding for atom   31 (    32.4038 ppm):
                         Standard Origin              Atomic Origin
 NLMO      Total    Paramagnetic  Diamagnetic   Paramagnetic  Diamagnetic
   23      -0.1561        0.6425      -0.7986        -1.1136       0.9575
   24       1.2402        0.4480       0.7922         0.2372       1.0030
   29       2.0107        1.4170       0.5937         0.1310       1.8797
   30       1.9350        2.0997      -0.1647         0.0944       1.8406
   31      26.3775        0.0159      26.3615         0.4380      25.9395
 Sum       31.4072        4.6231      26.7841        -0.2129      31.6202
 
 1\1\GINC-COMPUTE-10-4\SP\RHF\STO-3G\C10H20O1\YTSAI.IQUIR\03-Aug-2021\0
 \\# rhf/STO-3G nmr pop=nbo\\comment\\0,1\C,0,0.109797523,0.212165344,-
 3.288290664\C,0,-0.858258076,0.140620331,-2.105750332\C,0,-0.048522054
 ,-1.24098842,-0.084138031\C,0,-1.202972136,1.048828157,0.234884567\C,0
 ,-0.623770356,-0.21183396,0.919903374\C,0,-0.622273162,1.316453211,-1.
 14674505\C,0,-0.815516619,-1.233770631,-1.408919471\O,0,1.339847423,-1
 .078932303,-0.337080034\C,0,0.267434108,0.133463028,2.149190362\C,0,1.
 480735817,1.021082975,1.858006568\C,0,0.71000228,-1.123500694,2.905217
 203\H,0,1.148285299,0.080495824,-2.968889594\H,0,-0.118402716,-0.56642
 4502,-4.023940369\H,0,0.031616767,1.180426032,-3.794208454\H,0,-1.8682
 11813,0.250152385,-2.524934718\H,0,-0.149854956,-2.23977492,0.35709781
 5\H,0,-1.086542993,1.935307477,0.868559766\H,0,-2.287855158,0.91339727
 6,0.123702713\H,0,-1.509371961,-0.706371434,1.351074941\H,0,0.44541056
 9,1.545782911,-1.057093285\H,0,-1.084892978,2.218397556,-1.566803501\H
 ,0,-0.395127077,-1.986741655,-2.086714636\H,0,-1.848586052,-1.54486948
 3,-1.20343618\H,0,1.489323483,-0.206421378,-0.732127259\H,0,-0.3701317
 65,0.70293375,2.840748902\H,0,2.258304917,0.496408065,1.297768259\H,0,
 1.204757923,1.921993599,1.303700034\H,0,1.9365795,1.350578172,2.798968
 131\H,0,1.417219538,-1.722182479,2.322867372\H,0,-0.150841884,-1.75390
 1102,3.15143144\H,0,1.201816607,-0.852773131,3.845950129\\Version=EM64
 L-G09RevC.01\State=1-A\HF=-459.6054173\RMSD=8.833e-09\Dipole=-0.459422
 9,0.3875002,-0.1165187\Quadrupole=-0.4421984,-0.2739558,0.7161542,1.96
 69066,-0.0785989,-0.2147944\PG=C01 [X(C10H20O1)]\\@


 ON A CLEAR DISK YOU CAN SEEK FOREVER.
 Job cpu time:  0 days  0 hours  0 minutes 29.7 seconds.
 File lengths (MBytes):  RWF=      5 Int=      0 D2E=      0 Chk=      1 Scr=      1
 Normal termination of Gaussian 09 at Tue Aug  3 16:36:07 2021.
