 Entering Gaussian System, Link 0=g09
 Input=/home/ytsai.iquir/menthol/02_menthol_M0028_MMFF_NMR_rhf_STO-3G_nbo.gjc
 Output=/home/ytsai.iquir/menthol/02_menthol_M0028_MMFF_NMR_rhf_STO-3G_nbo.log
 Initial command:
 /share/apps/Gaussian09/EM64T.SSE4.2-enabled/g09/l1.exe /tmp/Gau-30381.inp -scrdir=/tmp/
 Entering Link 1 = /share/apps/Gaussian09/EM64T.SSE4.2-enabled/g09/l1.exe PID=     30382.
  
 Copyright (c) 1988,1990,1992,1993,1995,1998,2003,2009,2011,
            Gaussian, Inc.  All Rights Reserved.
  
 This is part of the Gaussian(R) 09 program.  It is based on
 the Gaussian(R) 03 system (copyright 2003, Gaussian, Inc.),
 the Gaussian(R) 98 system (copyright 1998, Gaussian, Inc.),
 the Gaussian(R) 94 system (copyright 1995, Gaussian, Inc.),
 the Gaussian 92(TM) system (copyright 1992, Gaussian, Inc.),
 the Gaussian 90(TM) system (copyright 1990, Gaussian, Inc.),
 the Gaussian 88(TM) system (copyright 1988, Gaussian, Inc.),
 the Gaussian 86(TM) system (copyright 1986, Carnegie Mellon
 University), and the Gaussian 82(TM) system (copyright 1983,
 Carnegie Mellon University). Gaussian is a federally registered
 trademark of Gaussian, Inc.
  
 This software contains proprietary and confidential information,
 including trade secrets, belonging to Gaussian, Inc.
  
 This software is provided under written license and may be
 used, copied, transmitted, or stored only in accord with that
 written license.
  
 The following legend is applicable only to US Government
 contracts under FAR:
  
                    RESTRICTED RIGHTS LEGEND
  
 Use, reproduction and disclosure by the US Government is
 subject to restrictions as set forth in subparagraphs (a)
 and (c) of the Commercial Computer Software - Restricted
 Rights clause in FAR 52.227-19.
  
 Gaussian, Inc.
 340 Quinnipiac St., Bldg. 40, Wallingford CT 06492
  
  
 ---------------------------------------------------------------
 Warning -- This program may not be used in any manner that
 competes with the business of Gaussian, Inc. or will provide
 assistance to any competitor of Gaussian, Inc.  The licensee
 of this program is prohibited from giving any competitor of
 Gaussian, Inc. access to this program.  By using this program,
 the user acknowledges that Gaussian, Inc. is engaged in the
 business of creating and licensing software in the field of
 computational chemistry and represents and warrants to the
 licensee that it is not a competitor of Gaussian, Inc. and that
 it will not use this program in any manner prohibited above.
 ---------------------------------------------------------------
  

 Cite this work as:
 Gaussian 09, Revision C.01,
 M. J. Frisch, G. W. Trucks, H. B. Schlegel, G. E. Scuseria, 
 M. A. Robb, J. R. Cheeseman, G. Scalmani, V. Barone, B. Mennucci, 
 G. A. Petersson, H. Nakatsuji, M. Caricato, X. Li, H. P. Hratchian, 
 A. F. Izmaylov, J. Bloino, G. Zheng, J. L. Sonnenberg, M. Hada, 
 M. Ehara, K. Toyota, R. Fukuda, J. Hasegawa, M. Ishida, T. Nakajima, 
 Y. Honda, O. Kitao, H. Nakai, T. Vreven, J. A. Montgomery, Jr., 
 J. E. Peralta, F. Ogliaro, M. Bearpark, J. J. Heyd, E. Brothers, 
 K. N. Kudin, V. N. Staroverov, T. Keith, R. Kobayashi, J. Normand, 
 K. Raghavachari, A. Rendell, J. C. Burant, S. S. Iyengar, J. Tomasi, 
 M. Cossi, N. Rega, J. M. Millam, M. Klene, J. E. Knox, J. B. Cross, 
 V. Bakken, C. Adamo, J. Jaramillo, R. Gomperts, R. E. Stratmann, 
 O. Yazyev, A. J. Austin, R. Cammi, C. Pomelli, J. W. Ochterski, 
 R. L. Martin, K. Morokuma, V. G. Zakrzewski, G. A. Voth, 
 P. Salvador, J. J. Dannenberg, S. Dapprich, A. D. Daniels, 
 O. Farkas, J. B. Foresman, J. V. Ortiz, J. Cioslowski, 
 and D. J. Fox, Gaussian, Inc., Wallingford CT, 2010.
 
 ******************************************
 Gaussian 09:  EM64L-G09RevC.01 23-Sep-2011
                 3-Aug-2021 
 ******************************************
 %nprocshared=4
 Will use up to    4 processors via shared memory.
 ------------------------
 # rhf/STO-3G nmr pop=nbo
 ------------------------
 1/38=1/1;
 2/12=2,17=6,18=5,40=1/2;
 3/6=3,11=1,16=1,25=1,30=1,116=1/1,2,8,3;
 4//1;
 5/5=2,38=5/2;
 8/6=1,10=90,11=11/1;
 10/13=100,45=16/2;
 6/7=2,8=2,9=2,10=2,28=1,64=1/1,7;
 99/9=1/99;
 -------
 comment
 -------
 Charge =  0 Multiplicity = 1
 Symbolic Z-Matrix:
 6                     2.20299   1.18765  -1.78277 
 6                     0.74075   0.88025  -2.11344 
 6                     0.12985  -1.06469  -0.50456 
 6                    -0.39154   1.34438   0.13174 
 6                    -0.84775  -0.12375   0.23438 
 6                    -0.22218   1.77561  -1.32492 
 6                     0.38686  -0.60741  -1.94733 
 8                     1.36964  -1.22244   0.17133 
 6                    -1.20089  -0.51848   1.69914 
 6                    -0.07018  -0.3777    2.72093 
 6                    -1.78934  -1.93124   1.77943 
 1                     2.87476   0.51911  -2.33125 
 1                     2.44847   2.21412  -2.07747 
 1                     2.42761   1.09682  -0.71839 
 1                     0.61729   1.12218  -3.17807 
 1                    -0.30921  -2.06695  -0.55926 
 1                     0.54858   1.50645   0.66831 
 1                    -1.13727   1.99509   0.60464 
 1                    -1.79645  -0.18302  -0.32176 
 1                     0.11241   2.8192   -1.36244 
 1                    -1.20526   1.7499   -1.81307 
 1                     1.1749   -1.223    -2.39835 
 1                    -0.52852  -0.79528  -2.52462 
 1                     1.65791  -0.35869   0.50445 
 1                    -1.99614   0.16887   2.02106 
 1                     0.7263   -1.10884   2.55968 
 1                     0.36762   0.62384   2.71025 
 1                    -0.45625  -0.54594   3.73309 
 1                    -1.03483  -2.69705   1.57315 
 1                    -2.6102   -2.05491   1.0654 
 1                    -2.18995  -2.12405   2.78074 
 
                          Input orientation:                          
 ---------------------------------------------------------------------
 Center     Atomic      Atomic             Coordinates (Angstroms)
 Number     Number       Type             X           Y           Z
 ---------------------------------------------------------------------
      1          6           0        2.202990    1.187652   -1.782772
      2          6           0        0.740751    0.880250   -2.113438
      3          6           0        0.129853   -1.064688   -0.504560
      4          6           0       -0.391540    1.344377    0.131744
      5          6           0       -0.847747   -0.123752    0.234384
      6          6           0       -0.222180    1.775607   -1.324920
      7          6           0        0.386864   -0.607415   -1.947331
      8          8           0        1.369640   -1.222436    0.171328
      9          6           0       -1.200887   -0.518477    1.699137
     10          6           0       -0.070184   -0.377701    2.720931
     11          6           0       -1.789344   -1.931239    1.779428
     12          1           0        2.874759    0.519110   -2.331251
     13          1           0        2.448473    2.214116   -2.077469
     14          1           0        2.427613    1.096815   -0.718393
     15          1           0        0.617289    1.122180   -3.178072
     16          1           0       -0.309205   -2.066948   -0.559264
     17          1           0        0.548581    1.506450    0.668306
     18          1           0       -1.137268    1.995091    0.604640
     19          1           0       -1.796448   -0.183022   -0.321763
     20          1           0        0.112406    2.819196   -1.362442
     21          1           0       -1.205262    1.749896   -1.813074
     22          1           0        1.174901   -1.222999   -2.398350
     23          1           0       -0.528521   -0.795283   -2.524624
     24          1           0        1.657905   -0.358689    0.504446
     25          1           0       -1.996139    0.168866    2.021063
     26          1           0        0.726305   -1.108843    2.559681
     27          1           0        0.367619    0.623838    2.710255
     28          1           0       -0.456248   -0.545942    3.733091
     29          1           0       -1.034825   -2.697047    1.573149
     30          1           0       -2.610197   -2.054908    1.065402
     31          1           0       -2.189954   -2.124053    2.780738
 ---------------------------------------------------------------------
                    Distance matrix (angstroms):
                    1          2          3          4          5
     1  C    0.000000
     2  C    1.530352   0.000000
     3  C    3.317342   2.597012   0.000000
     4  C    3.228238   2.557018   2.545649   0.000000
     5  C    3.885318   3.007261   1.545025   1.540799   0.000000
     6  C    2.537079   1.533187   2.977280   1.528565   2.535809
     7  C    2.558839   1.538173   1.535168   2.956003   2.553052
     8  O    3.212710   3.168114   1.420837   3.113173   2.475456
     9  C    5.159549   4.501348   2.631634   2.565539   1.557568
    10  C    5.282139   5.060749   3.303901   3.126133   2.617634
    11  C    6.193181   5.427731   3.106579   3.924076   2.557494
    12  H    1.095012   2.175283   3.657831   4.173262   4.566487
    13  H    1.095781   2.167211   4.312841   3.701721   4.655680
    14  H    1.091609   2.199671   3.161886   2.954935   3.622920
    15  H    2.113195   1.098734   3.488216   3.467274   3.917082
    16  H    4.289583   3.493401   1.095578   3.481581   2.167006
    17  H    2.974304   2.857824   2.856868   1.094529   2.189880
    18  H    4.184378   3.486800   3.492588   1.096891   2.170347
    19  H    4.473120   3.282991   2.126355   2.124237   1.101293
    20  H    2.684987   2.172170   3.977540   2.159085   3.483202
    21  H    3.454449   2.152549   3.378850   2.146836   2.798296
    22  H    2.692052   2.166407   2.168785   3.930208   3.497247
    23  H    3.455941   2.141854   2.141657   3.413678   2.857444
    24  H    2.814188   3.038003   1.962517   2.690644   2.531091
    25  H    5.756716   5.009066   3.524241   2.743373   2.143981
    26  H    5.129463   5.078853   3.122063   3.628049   2.975743
    27  H    4.886079   4.844893   3.639051   2.782843   2.857611
    28  H    6.364090   6.135857   4.309327   4.067824   3.545767
    29  H    6.069312   5.435132   2.887550   4.338729   2.906740
    30  H    6.464755   5.472571   3.309560   4.165248   2.743389
    31  H    7.147795   6.447312   4.158959   4.720325   3.505230
                    6          7          8          9         10
     6  C    0.000000
     7  C    2.537148   0.000000
     8  O    3.709570   2.415122   0.000000
     9  C    3.919899   3.978139   3.072030   0.000000
    10  C    4.585711   4.696204   3.047482   1.530480   0.000000
    11  C    5.082685   4.514103   3.614909   1.532522   2.501084
    12  H    3.490347   2.757912   3.400186   5.825075   5.916206
    13  H    2.809094   3.496885   4.246275   5.920105   6.007145
    14  H    2.801791   2.929051   2.699970   4.649692   4.499126
    15  H    2.136785   2.135256   4.157130   5.457535   6.125398
    16  H    3.919060   2.131075   2.016305   2.879797   3.697346
    17  H    2.153942   3.366917   2.892739   2.867678   2.854148
    18  H    2.146803   3.950768   4.101807   2.742261   3.353728
    19  H    2.705710   2.754892   3.368625   2.133369   3.503695
    20  H    1.096556   3.486988   4.501986   4.715726   5.189164
    21  H    1.097909   2.847772   4.404852   4.181048   5.135394
    22  H    3.477891   1.096980   2.577047   4.788541   5.335898
    23  H    2.853526   1.098405   3.324700   4.285891   5.282073
    24  H    3.381792   2.772836   0.969599   3.102501   2.810598
    25  H    4.113897   4.693556   4.084815   1.099320   2.120815
    26  H    4.930497   4.547505   2.476089   2.191605   1.093144
    27  H    4.237578   4.817619   3.295288   2.188025   1.093099
    28  H    5.570265   5.742979   4.059269   2.166150   1.096275
    29  H    5.391088   4.333767   3.149767   2.188519   2.761757
    30  H    5.107749   4.489339   4.163109   2.179081   3.464890
    31  H    5.994656   5.594177   4.504736   2.173934   2.747134
                   11         12         13         14         15
    11  C    0.000000
    12  H    6.682496   0.000000
    13  H    7.072391   1.766117   0.000000
    14  H    5.761159   1.770591   1.759512   0.000000
    15  H    6.300163   2.485351   2.399350   3.054166   0.000000
    16  H    2.771048   4.468251   5.313873   4.186275   4.229313
    17  H    4.303276   3.922153   3.413160   2.370969   3.866136
    18  H    4.149867   5.185975   4.483215   3.907133   4.260206
    19  H    2.733371   5.133342   5.181517   4.431477   3.960830
    20  H    6.004551   3.722846   2.516862   2.956615   2.535997
    21  H    5.176676   4.293007   3.692584   3.850015   2.361978
    22  H    5.171285   2.434946   3.679498   3.126193   2.533527
    23  H    4.626547   3.653401   4.256633   3.947307   2.327346
    24  H    3.997752   3.208183   3.729693   2.050921   4.103266
    25  H    2.124051   6.541480   6.382444   5.285385   5.896594
    26  H    2.759279   5.584559   5.959117   4.301761   6.157204
    27  H    3.470929   5.631474   5.457219   4.027767   5.914649
    28  H    2.740983   7.000442   7.058182   5.552569   7.190221
    29  H    1.094675   6.393188   7.041299   5.624325   6.315859
    30  H    1.094955   6.946046   7.327506   6.204418   6.206257
    31  H    1.095576   7.666163   7.996054   6.628713   7.343436
                   16         17         18         19         20
    16  H    0.000000
    17  H    3.874519   0.000000
    18  H    4.305871   1.756391   0.000000
    19  H    2.411944   3.055112   2.457014   0.000000
    20  H    4.969634   2.457130   2.471892   3.706757   0.000000
    21  H    4.116219   3.048356   2.431067   2.511907   1.755768
    22  H    2.509395   4.152896   4.971939   3.771297   4.305966
    23  H    2.351144   4.080799   4.236633   2.614402   3.850443
    24  H    2.814099   2.176280   3.655586   3.556127   3.996598
    25  H    3.808241   3.177213   2.465565   2.377507   4.787309
    26  H    3.423166   3.232436   4.114546   3.940069   5.584748
    27  H    4.288144   2.231884   2.928929   3.811475   4.633745
    28  H    4.556247   3.822944   4.087522   4.285987   6.132861
    29  H    2.338960   4.582063   4.792146   3.238994   6.353171
    30  H    2.816779   4.776905   4.334087   2.467868   6.088011
    31  H    3.833548   5.014229   4.776075   3.680756   6.848541
                   21         22         23         24         25
    21  H    0.000000
    22  H    3.853028   0.000000
    23  H    2.728043   1.760833   0.000000
    24  H    4.244379   3.067010   3.761162   0.000000
    25  H    4.222055   5.614624   4.873065   3.991301   0.000000
    26  H    5.569948   4.979593   5.246244   2.377941   3.055217
    27  H    4.919600   5.491845   5.497357   2.737844   2.503865
    28  H    6.049118   6.380723   6.263098   3.863788   2.411069
    29  H    5.592035   4.777920   4.545855   3.723015   3.055848
    30  H    4.973530   5.197751   4.336856   4.626935   2.497103
    31  H    6.089352   6.241563   5.716018   4.806666   2.423251
                   26         27         28         29         30
    26  H    0.000000
    27  H    1.775813   0.000000
    28  H    1.758459   1.758789   0.000000
    29  H    2.568505   3.779966   3.102798   0.000000
    30  H    3.776261   4.329966   3.746069   1.775372   0.000000
    31  H    3.095817   3.754604   2.530444   1.766612   1.767417
                   31
    31  H    0.000000
 Stoichiometry    C10H20O
 Framework group  C1[X(C10H20O)]
 Deg. of freedom    87
 Full point group                 C1      NOp   1
 Largest Abelian subgroup         C1      NOp   1
 Largest concise Abelian subgroup C1      NOp   1
                         Standard orientation:                         
 ---------------------------------------------------------------------
 Center     Atomic      Atomic             Coordinates (Angstroms)
 Number     Number       Type             X           Y           Z
 ---------------------------------------------------------------------
      1          6           0        2.851046   -0.195022    1.024311
      2          6           0        2.339542    0.052908   -0.396560
      3          6           0       -0.024291   -1.022557   -0.408302
      4          6           0        0.256254    1.464366    0.057354
      5          6           0       -0.644470    0.383233   -0.570269
      6          6           0        1.667326    1.424494   -0.528990
      7          6           0        1.425349   -1.072011   -0.911132
      8          8           0       -0.080395   -1.505978    0.926590
      9          6           0       -2.127541    0.532349   -0.118294
     10          6           0       -2.380193    0.439496    1.388330
     11          6           0       -3.045488   -0.451329   -0.852035
     12          1           0        3.300227   -1.190151    1.108015
     13          1           0        3.625170    0.537322    1.279540
     14          1           0        2.067913   -0.110950    1.780117
     15          1           0        3.231083    0.060409   -1.038678
     16          1           0       -0.596497   -1.738429   -1.008634
     17          1           0        0.313300    1.351545    1.144557
     18          1           0       -0.173097    2.455877   -0.131678
     19          1           0       -0.646468    0.585353   -1.652854
     20          1           0        2.284031    2.197302   -0.054778
     21          1           0        1.610412    1.686564   -1.593642
     22          1           0        1.870792   -2.044641   -0.668365
     23          1           0        1.400627   -1.001806   -2.007012
     24          1           0        0.146314   -0.783430    1.532106
     25          1           0       -2.443594    1.540062   -0.423462
     26          1           0       -2.209427   -0.568649    1.774913
     27          1           0       -1.757012    1.139528    1.950884
     28          1           0       -3.423563    0.692636    1.609954
     29          1           0       -2.872113   -1.483652   -0.531780
     30          1           0       -2.893124   -0.396146   -1.934932
     31          1           0       -4.097014   -0.216480   -0.653476
 ---------------------------------------------------------------------
 Rotational constants (GHZ):      1.8572972      0.7340679      0.6920107
 Standard basis: STO-3G (5D, 7F)
 There are    75 symmetry adapted basis functions of A   symmetry.
 Integral buffers will be    131072 words long.
 Raffenetti 1 integral format.
 Two-electron integral symmetry is turned on.
    75 basis functions,   225 primitive gaussians,    75 cartesian basis functions
    44 alpha electrons       44 beta electrons
       nuclear repulsion energy       704.7555593940 Hartrees.
 NAtoms=   31 NActive=   31 NUniq=   31 SFac= 1.00D+00 NAtFMM=   60 NAOKFM=F Big=F
 One-electron integrals computed using PRISM.
 NBasis=    75 RedAO= T  NBF=    75
 NBsUse=    75 1.00D-06 NBFU=    75
 Harris functional with IExCor=  205 diagonalized for initial guess.
 ExpMin= 1.69D-01 ExpMax= 1.31D+02 ExpMxC= 1.31D+02 IAcc=1 IRadAn=         1 AccDes= 0.00D+00
 HarFok:  IExCor=  205 AccDes= 0.00D+00 IRadAn=         1 IDoV= 1
 ScaDFX=  1.000000  1.000000  1.000000  1.000000
 FoFCou: FMM=F IPFlag=           0 FMFlag=      100000 FMFlg1=           0
         NFxFlg=           0 DoJE=T BraDBF=F KetDBF=T FulRan=T
         Omega=  0.000000  0.000000  1.000000  0.000000  0.000000 ICntrl=     500 IOpCl=  0
         NMat0=    1 NMatS0=    1 NMatT0=    0 NMatD0=    1 NMtDS0=    0 NMtDT0=    0
         I1Cent=           4 NGrid=           0.
 Petite list used in FoFCou.
 Initial guess orbital symmetries:
       Occupied  (A) (A) (A) (A) (A) (A) (A) (A) (A) (A) (A) (A)
                 (A) (A) (A) (A) (A) (A) (A) (A) (A) (A) (A) (A)
                 (A) (A) (A) (A) (A) (A) (A) (A) (A) (A) (A) (A)
                 (A) (A) (A) (A) (A) (A) (A) (A)
       Virtual   (A) (A) (A) (A) (A) (A) (A) (A) (A) (A) (A) (A)
                 (A) (A) (A) (A) (A) (A) (A) (A) (A) (A) (A) (A)
                 (A) (A) (A) (A) (A) (A) (A)
 The electronic state of the initial guess is 1-A.
 Requested convergence on RMS density matrix=1.00D-08 within 128 cycles.
 Requested convergence on MAX density matrix=1.00D-06.
 Requested convergence on             energy=1.00D-06.
 No special actions if energy rises.
 Keep R1 ints in memory in canonical form, NReq=4898789.
 SCF Done:  E(RHF) =  -459.614298633     A.U. after   10 cycles
             Convg  =    0.7184D-08             -V/T =  2.0089
 Range of M.O.s used for correlation:     1    75
 NBasis=    75 NAE=    44 NBE=    44 NFC=     0 NFV=     0
 NROrb=     75 NOA=    44 NOB=    44 NVA=    31 NVB=    31
          Differentiating once with respect to magnetic field using GIAOs.
          Electric field/nuclear overlap derivatives assumed to be zero.
          Keep R3 ints in memory in canonical form, NReq=4863575.
 FoFCou: FMM=F IPFlag=           0 FMFlag=           0 FMFlg1=           0
         NFxFlg=           0 DoJE=F BraDBF=F KetDBF=T FulRan=T
         Omega=  0.000000  0.000000  1.000000  0.000000  0.000000 ICntrl=    6100 IOpCl=  0
         NMat0=    1 NMatS0=    1 NMatT0=    0 NMatD0=    1 NMtDS0=    0 NMtDT0=    0
         I1Cent=           7 NGrid=          31.
 Symmetry not used in FoFCou.
          There are     3 degrees of freedom in the 1st order CPHF.  IDoFFX=0.
      3 vectors produced by pass  0 Test12= 4.55D-14 3.33D-08 XBig12= 6.68D+00 3.93D-01.
 AX will form     3 AO Fock derivatives at one time.
      3 vectors produced by pass  1 Test12= 4.55D-14 3.33D-08 XBig12= 9.55D-03 1.58D-02.
      3 vectors produced by pass  2 Test12= 4.55D-14 3.33D-08 XBig12= 6.04D-05 2.79D-03.
      3 vectors produced by pass  3 Test12= 4.55D-14 3.33D-08 XBig12= 1.50D-06 3.68D-04.
      3 vectors produced by pass  4 Test12= 4.55D-14 3.33D-08 XBig12= 2.22D-08 2.31D-05.
      3 vectors produced by pass  5 Test12= 4.55D-14 3.33D-08 XBig12= 2.86D-10 2.76D-06.
      3 vectors produced by pass  6 Test12= 4.55D-14 3.33D-08 XBig12= 2.59D-12 3.43D-07.
      1 vectors produced by pass  7 Test12= 4.55D-14 3.33D-08 XBig12= 3.28D-14 3.45D-08.
 Inverted reduced A of dimension    22 with in-core refinement.
 Calculating GIAO nuclear magnetic shielding tensors.
 SCF GIAO Magnetic shielding tensor (ppm):
      1  C    Isotropic =   221.7519   Anisotropy =    25.1211
   XX=   217.2985   YX=    -0.4364   ZX=    10.7454
   XY=    -1.1826   YY=   217.8118   ZY=    -2.4609
   XZ=    15.0522   YZ=    -3.0206   ZZ=   230.1455
   Eigenvalues:   209.2438   217.5127   238.4993
      2  C    Isotropic =   217.0492   Anisotropy =     3.9911
   XX=   216.2207   YX=     0.1144   ZX=     3.8189
   XY=     0.6742   YY=   218.2678   ZY=     0.4334
   XZ=     2.3043   YZ=     0.3019   ZZ=   216.6590
   Eigenvalues:   213.3701   218.0675   219.7099
      3  C    Isotropic =   190.9696   Anisotropy =    38.1496
   XX=   182.7133   YX=    -2.6299   ZX=    -2.9368
   XY=    -4.9831   YY=   178.0721   ZY=   -13.3779
   XZ=    -2.6173   YZ=   -12.0292   ZZ=   212.1235
   Eigenvalues:   171.9720   184.5342   216.4027
      4  C    Isotropic =   221.1545   Anisotropy =    17.2583
   XX=   231.0977   YX=     3.3319   ZX=    -1.6239
   XY=     4.6179   YY=   222.1744   ZY=     3.7810
   XZ=     1.5770   YZ=     2.1213   ZZ=   210.1913
   Eigenvalues:   209.4623   221.3411   232.6600
      5  C    Isotropic =   210.3169   Anisotropy =    16.0370
   XX=   220.1604   YX=     3.5651   ZX=     0.2263
   XY=     1.6987   YY=   206.3029   ZY=    -0.7984
   XZ=    -5.3119   YZ=     1.3333   ZZ=   204.4876
   Eigenvalues:   203.8627   206.0799   221.0083
      6  C    Isotropic =   217.0274   Anisotropy =    10.6923
   XX=   221.5988   YX=    -2.9620   ZX=    -0.0202
   XY=    -3.7971   YY=   219.4130   ZY=    -4.4508
   XZ=    -0.6667   YZ=    -0.3905   ZZ=   210.0704
   Eigenvalues:   209.3664   217.5603   224.1556
      7  C    Isotropic =   215.2436   Anisotropy =    10.2514
   XX=   221.4262   YX=     1.6177   ZX=    -0.6151
   XY=     2.2539   YY=   216.2022   ZY=     1.7551
   XZ=    -0.1052   YZ=     3.0154   ZZ=   208.1023
   Eigenvalues:   207.3985   216.2544   222.0779
      8  O    Isotropic =   363.8435   Anisotropy =    69.6331
   XX=   357.5825   YX=    11.2093   ZX=     7.2482
   XY=    13.1497   YY=   390.5516   ZY=    50.8724
   XZ=     0.7794   YZ=    14.3481   ZZ=   343.3965
   Eigenvalues:   326.5996   354.6654   410.2656
      9  C    Isotropic =   212.8009   Anisotropy =    17.9825
   XX=   224.6804   YX=     0.4626   ZX=     0.4278
   XY=     0.3970   YY=   205.5698   ZY=     1.9833
   XZ=    -3.0625   YZ=     1.3879   ZZ=   208.1526
   Eigenvalues:   204.6903   208.9232   224.7893
     10  C    Isotropic =   224.1264   Anisotropy =    20.6245
   XX=   219.8743   YX=    -0.4566   ZX=    -4.6985
   XY=    -1.0828   YY=   215.3862   ZY=    -0.9793
   XZ=    -2.5931   YZ=     1.9772   ZZ=   237.1186
   Eigenvalues:   215.2573   219.2458   237.8761
     11  C    Isotropic =   221.5033   Anisotropy =    25.7919
   XX=   224.3283   YX=     8.8357   ZX=     8.9368
   XY=    10.5392   YY=   217.5487   ZY=     9.5561
   XZ=     5.8349   YZ=     7.2696   ZZ=   222.6329
   Eigenvalues:   209.7628   216.0492   238.6979
     12  H    Isotropic =    32.4682   Anisotropy =    13.8351
   XX=    32.5084   YX=    -5.8068   ZX=     3.6176
   XY=    -5.7016   YY=    35.6913   ZY=    -2.4872
   XZ=     3.9117   YZ=    -3.0332   ZZ=    29.2048
   Eigenvalues:    26.5841    29.1288    41.6915
     13  H    Isotropic =    32.5991   Anisotropy =    14.6244
   XX=    36.4296   YX=     4.7249   ZX=     5.5423
   XY=     5.0929   YY=    30.8851   ZY=     1.8356
   XZ=     5.9092   YZ=     2.3460   ZZ=    30.4828
   Eigenvalues:    26.7212    28.7275    42.3488
     14  H    Isotropic =    33.1236   Anisotropy =     7.5420
   XX=    34.8978   YX=    -0.8764   ZX=    -1.6601
   XY=    -0.4566   YY=    27.0823   ZY=    -0.5034
   XZ=    -1.4836   YZ=    -0.4038   ZZ=    37.3906
   Eigenvalues:    26.9921    34.2271    38.1515
     15  H    Isotropic =    32.4229   Anisotropy =    15.4807
   XX=    38.4777   YX=    -0.1136   ZX=    -6.6901
   XY=     0.0952   YY=    26.6750   ZY=    -0.1076
   XZ=    -6.7758   YZ=     0.0211   ZZ=    32.1159
   Eigenvalues:    26.6736    27.8518    42.7434
     16  H    Isotropic =    31.3848   Anisotropy =    11.0388
   XX=    32.9157   YX=     2.7855   ZX=     2.3864
   XY=     2.4934   YY=    32.4383   ZY=     4.8503
   XZ=     2.9860   YZ=     6.0568   ZZ=    28.8004
   Eigenvalues:    24.8119    30.5984    38.7440
     17  H    Isotropic =    33.1830   Anisotropy =     8.3572
   XX=    32.7536   YX=     0.6809   ZX=    -0.5211
   XY=     0.2288   YY=    28.5312   ZY=     1.8702
   XZ=    -0.5619   YZ=     2.4527   ZZ=    38.2644
   Eigenvalues:    28.0071    32.7875    38.7545
     18  H    Isotropic =    32.7198   Anisotropy =    13.4984
   XX=    32.3801   YX=    -3.1075   ZX=    -0.2811
   XY=    -3.2236   YY=    40.6127   ZY=    -0.7887
   XZ=    -0.3638   YZ=    -0.9072   ZZ=    25.1665
   Eigenvalues:    25.0833    31.3573    41.7187
     19  H    Isotropic =    32.7524   Anisotropy =    10.3783
   XX=    32.3531   YX=     0.3214   ZX=     0.9248
   XY=     0.1094   YY=    27.0015   ZY=    -2.6854
   XZ=     1.3145   YZ=    -2.8815   ZZ=    38.9025
   Eigenvalues:    26.3480    32.2379    39.6713
     20  H    Isotropic =    32.5473   Anisotropy =    14.3643
   XX=    33.6564   YX=     5.8204   ZX=     2.0324
   XY=     5.9112   YY=    37.0765   ZY=     2.0096
   XZ=     2.3594   YZ=     2.5377   ZZ=    26.9090
   Eigenvalues:    26.2139    29.3045    42.1235
     21  H    Isotropic =    32.5682   Anisotropy =    13.4471
   XX=    29.3570   YX=     0.4895   ZX=    -1.7996
   XY=     0.6530   YY=    30.7857   ZY=    -6.1515
   XZ=    -2.0460   YZ=    -6.2084   ZZ=    37.5621
   Eigenvalues:    27.0115    29.1603    41.5330
     22  H    Isotropic =    32.0832   Anisotropy =    14.0084
   XX=    31.1574   YX=    -5.2209   ZX=     0.0288
   XY=    -4.9361   YY=    38.8436   ZY=     1.0752
   XZ=     0.1355   YZ=     1.0077   ZZ=    26.2487
   Eigenvalues:    26.0829    28.7446    41.4222
     23  H    Isotropic =    32.4951   Anisotropy =    13.5808
   XX=    29.3363   YX=    -0.0390   ZX=    -1.4657
   XY=     0.1800   YY=    27.6697   ZY=     3.1713
   XZ=    -1.8084   YZ=     3.7180   ZZ=    40.4793
   Eigenvalues:    26.7129    29.2234    41.5490
     24  H    Isotropic =    35.2252   Anisotropy =    10.1968
   XX=    30.4223   YX=     1.8931   ZX=     2.3684
   XY=     2.2699   YY=    35.2751   ZY=     4.1511
   XZ=     1.6533   YZ=     1.7040   ZZ=    39.9781
   Eigenvalues:    29.5638    34.0887    42.0230
     25  H    Isotropic =    32.5180   Anisotropy =    12.4338
   XX=    32.3761   YX=    -4.1537   ZX=     1.5176
   XY=    -4.1880   YY=    37.4460   ZY=    -3.5113
   XZ=     1.3649   YZ=    -3.2235   ZZ=    27.7318
   Eigenvalues:    26.6745    30.0723    40.8072
     26  H    Isotropic =    32.4537   Anisotropy =     9.0549
   XX=    30.4751   YX=    -0.9185   ZX=    -1.6536
   XY=    -1.5236   YY=    33.9858   ZY=    -4.9783
   XZ=    -2.1262   YZ=    -5.0245   ZZ=    32.9001
   Eigenvalues:    26.9906    31.8801    38.4903
     27  H    Isotropic =    32.8431   Anisotropy =    10.2511
   XX=    32.7195   YX=     3.1790   ZX=     0.3790
   XY=     2.6951   YY=    30.4294   ZY=     5.4029
   XZ=     0.5915   YZ=     5.8728   ZZ=    35.3805
   Eigenvalues:    25.9970    32.8552    39.6772
     28  H    Isotropic =    32.5798   Anisotropy =    14.9922
   XX=    39.0857   YX=    -2.7514   ZX=    -5.1768
   XY=    -2.9669   YY=    27.0406   ZY=     1.9323
   XZ=    -5.3796   YZ=     1.9489   ZZ=    31.6130
   Eigenvalues:    26.2225    28.9422    42.5746
     29  H    Isotropic =    32.2490   Anisotropy =     9.6154
   XX=    31.5288   YX=     2.2011   ZX=     1.5233
   XY=     1.9497   YY=    38.0552   ZY=    -0.3840
   XZ=     1.4584   YZ=    -0.4333   ZZ=    27.1632
   Eigenvalues:    26.6095    31.4783    38.6593
     30  H    Isotropic =    32.5334   Anisotropy =    12.7131
   XX=    30.9711   YX=     1.4830   ZX=     2.7442
   XY=     1.1804   YY=    26.5879   ZY=     1.7460
   XZ=     2.5755   YZ=     1.4166   ZZ=    40.0414
   Eigenvalues:    26.1617    30.4298    41.0088
     31  H    Isotropic =    32.3847   Anisotropy =    14.7943
   XX=    42.1958   YX=    -0.0696   ZX=     0.9296
   XY=     0.0094   YY=    26.8489   ZY=     1.1542
   XZ=     0.7809   YZ=     1.3205   ZZ=    28.1095
   Eigenvalues:    26.0766    28.8300    42.2476
 End of Minotr Frequency-dependent properties file   721 does not exist.
 End of Minotr Frequency-dependent properties file   722 does not exist.

 **********************************************************************

            Population analysis using the SCF density.

 **********************************************************************

 Orbital symmetries:
       Occupied  (A) (A) (A) (A) (A) (A) (A) (A) (A) (A) (A) (A)
                 (A) (A) (A) (A) (A) (A) (A) (A) (A) (A) (A) (A)
                 (A) (A) (A) (A) (A) (A) (A) (A) (A) (A) (A) (A)
                 (A) (A) (A) (A) (A) (A) (A) (A)
       Virtual   (A) (A) (A) (A) (A) (A) (A) (A) (A) (A) (A) (A)
                 (A) (A) (A) (A) (A) (A) (A) (A) (A) (A) (A) (A)
                 (A) (A) (A) (A) (A) (A) (A)
 The electronic state is 1-A.
 Alpha  occ. eigenvalues --  -20.23476 -11.08501 -11.04891 -11.04783 -11.04577
 Alpha  occ. eigenvalues --  -11.04206 -11.03996 -11.03443 -11.03369 -11.02914
 Alpha  occ. eigenvalues --  -11.02865  -1.27908  -1.08166  -1.03860  -0.97104
 Alpha  occ. eigenvalues --   -0.95364  -0.88904  -0.88439  -0.79926  -0.79298
 Alpha  occ. eigenvalues --   -0.72852  -0.68591  -0.63762  -0.60899  -0.58280
 Alpha  occ. eigenvalues --   -0.57640  -0.56143  -0.54841  -0.54073  -0.52144
 Alpha  occ. eigenvalues --   -0.51611  -0.50322  -0.49676  -0.48478  -0.47853
 Alpha  occ. eigenvalues --   -0.46095  -0.43890  -0.43380  -0.42126  -0.41276
 Alpha  occ. eigenvalues --   -0.39658  -0.39317  -0.36226  -0.32358
 Alpha virt. eigenvalues --    0.53236   0.55749   0.57489   0.57911   0.60316
 Alpha virt. eigenvalues --    0.61144   0.62191   0.64978   0.65648   0.66275
 Alpha virt. eigenvalues --    0.66746   0.68385   0.70598   0.71238   0.72027
 Alpha virt. eigenvalues --    0.72546   0.73923   0.74959   0.75856   0.76693
 Alpha virt. eigenvalues --    0.77227   0.78597   0.79309   0.80001   0.81010
 Alpha virt. eigenvalues --    0.81756   0.82228   0.83046   0.83340   0.84244
 Alpha virt. eigenvalues --    0.84707
          Condensed to atoms (all electrons):
              1          2          3          4          5          6
     1  C    4.743323   0.364139  -0.000222  -0.001173   0.000070  -0.024024
     2  C    0.364139   4.748432  -0.019549  -0.021198  -0.003580   0.362597
     3  C   -0.000222  -0.019549   4.739347  -0.022587   0.354691  -0.003686
     4  C   -0.001173  -0.021198  -0.022587   4.761311   0.361510   0.363181
     5  C    0.000070  -0.003580   0.354691   0.361510   4.794819  -0.021714
     6  C   -0.024024   0.362597  -0.003686   0.363181  -0.021714   4.756326
     7  C   -0.023117   0.360984   0.355618  -0.004241  -0.023598  -0.023012
     8  O   -0.000403  -0.000066   0.268958  -0.000724  -0.015324   0.000042
     9  C    0.000000   0.000002  -0.018105  -0.021518   0.358418   0.000635
    10  C    0.000000   0.000000  -0.000563  -0.002206  -0.019266   0.000009
    11  C    0.000000   0.000000  -0.002058   0.000631  -0.022177  -0.000004
    12  H    0.382995  -0.020004   0.000015   0.000000  -0.000001   0.001243
    13  H    0.382057  -0.020432  -0.000013   0.000025  -0.000002  -0.001822
    14  H    0.382069  -0.020097   0.000220  -0.000318   0.000043  -0.002075
    15  H   -0.025974   0.383199   0.001173   0.001240   0.000012  -0.023403
    16  H   -0.000016   0.001157   0.379968   0.001144  -0.022695   0.000017
    17  H   -0.000344  -0.001390  -0.001441   0.380713  -0.021809  -0.023220
    18  H    0.000006   0.001214   0.001170   0.383155  -0.020924  -0.021676
    19  H    0.000000   0.000076  -0.023211  -0.024535   0.378286  -0.002653
    20  H   -0.003349  -0.021179   0.000000  -0.021720   0.001215   0.382582
    21  H    0.001324  -0.022585   0.000044  -0.023497  -0.002025   0.381444
    22  H   -0.003539  -0.021710  -0.021051   0.000003   0.001103   0.001179
    23  H    0.001324  -0.022974  -0.021840   0.000054  -0.000844  -0.000871
    24  H   -0.001261   0.000113  -0.041643  -0.000186  -0.004749   0.000023
    25  H    0.000000  -0.000001   0.001071  -0.002290  -0.024019   0.000011
    26  H    0.000000   0.000000   0.000093   0.000029  -0.000993  -0.000001
    27  H    0.000000   0.000000   0.000029  -0.000909  -0.001766   0.000002
    28  H    0.000000   0.000000  -0.000007   0.000025   0.001089   0.000000
    29  H    0.000000   0.000000  -0.000616  -0.000003  -0.001291   0.000000
    30  H    0.000000   0.000000  -0.000069   0.000017  -0.002503   0.000000
    31  H    0.000000   0.000000   0.000021  -0.000013   0.001169   0.000000
              7          8          9         10         11         12
     1  C   -0.023117  -0.000403   0.000000   0.000000   0.000000   0.382995
     2  C    0.360984  -0.000066   0.000002   0.000000   0.000000  -0.020004
     3  C    0.355618   0.268958  -0.018105  -0.000563  -0.002058   0.000015
     4  C   -0.004241  -0.000724  -0.021518  -0.002206   0.000631   0.000000
     5  C   -0.023598  -0.015324   0.358418  -0.019266  -0.022177  -0.000001
     6  C   -0.023012   0.000042   0.000635   0.000009  -0.000004   0.001243
     7  C    4.782563  -0.021336   0.000541  -0.000004   0.000009  -0.002736
     8  O   -0.021336   7.850282  -0.000296  -0.001057   0.000012   0.000021
     9  C    0.000541  -0.000296   4.737894   0.364277   0.364057   0.000000
    10  C   -0.000004  -0.001057   0.364277   4.747748  -0.026075   0.000000
    11  C    0.000009   0.000012   0.364057  -0.026075   4.743423   0.000000
    12  H   -0.002736   0.000021   0.000000   0.000000   0.000000   0.624994
    13  H    0.001228   0.000006   0.000000   0.000000   0.000000  -0.021486
    14  H   -0.001006  -0.000878   0.000000   0.000000   0.000000  -0.021775
    15  H   -0.023554  -0.000010   0.000001   0.000000   0.000000  -0.001915
    16  H   -0.026061  -0.020887  -0.001455   0.000013  -0.000677  -0.000003
    17  H    0.000115  -0.000311  -0.001437  -0.000809  -0.000004  -0.000007
    18  H    0.000011   0.000002  -0.002285  -0.000002   0.000016   0.000001
    19  H   -0.001486   0.000553  -0.023478   0.001137  -0.002431   0.000000
    20  H    0.001182  -0.000001  -0.000014   0.000000   0.000000   0.000040
    21  H   -0.000993  -0.000001   0.000008  -0.000001   0.000000  -0.000035
    22  H    0.382283  -0.001083  -0.000012   0.000000   0.000000   0.000199
    23  H    0.378992   0.000665   0.000002   0.000000   0.000001   0.000040
    24  H   -0.000061   0.259577   0.000023  -0.000578   0.000007  -0.000035
    25  H   -0.000014  -0.000007   0.381669  -0.025669  -0.024630   0.000000
    26  H    0.000000   0.000002  -0.020127   0.382659  -0.002557   0.000000
    27  H   -0.000001  -0.000023  -0.019849   0.382380   0.001322   0.000000
    28  H    0.000000   0.000015  -0.020038   0.381900  -0.002198   0.000000
    29  H    0.000003   0.000044  -0.020221  -0.002552   0.382774   0.000000
    30  H   -0.000003   0.000002  -0.020310   0.001318   0.382024   0.000000
    31  H    0.000000  -0.000001  -0.019908  -0.002011   0.382497   0.000000
             13         14         15         16         17         18
     1  C    0.382057   0.382069  -0.025974  -0.000016  -0.000344   0.000006
     2  C   -0.020432  -0.020097   0.383199   0.001157  -0.001390   0.001214
     3  C   -0.000013   0.000220   0.001173   0.379968  -0.001441   0.001170
     4  C    0.000025  -0.000318   0.001240   0.001144   0.380713   0.383155
     5  C   -0.000002   0.000043   0.000012  -0.022695  -0.021809  -0.020924
     6  C   -0.001822  -0.002075  -0.023403   0.000017  -0.023220  -0.021676
     7  C    0.001228  -0.001006  -0.023554  -0.026061   0.000115   0.000011
     8  O    0.000006  -0.000878  -0.000010  -0.020887  -0.000311   0.000002
     9  C    0.000000   0.000000   0.000001  -0.001455  -0.001437  -0.002285
    10  C    0.000000   0.000000   0.000000   0.000013  -0.000809  -0.000002
    11  C    0.000000   0.000000   0.000000  -0.000677  -0.000004   0.000016
    12  H   -0.021486  -0.021775  -0.001915  -0.000003  -0.000007   0.000001
    13  H    0.632335  -0.022624  -0.003460   0.000001   0.000038  -0.000003
    14  H   -0.022624   0.639369   0.001979  -0.000005  -0.000456  -0.000006
    15  H   -0.003460   0.001979   0.651824  -0.000032  -0.000006  -0.000031
    16  H    0.000001  -0.000005  -0.000032   0.635497  -0.000010  -0.000027
    17  H    0.000038  -0.000456  -0.000006  -0.000010   0.651556  -0.023701
    18  H   -0.000003  -0.000006  -0.000031  -0.000027  -0.023701   0.636747
    19  H    0.000000  -0.000001  -0.000018  -0.002570   0.001960  -0.002554
    20  H    0.000184   0.000002  -0.001128   0.000002  -0.002632  -0.001979
    21  H    0.000023   0.000003  -0.004079  -0.000011   0.001992  -0.002977
    22  H    0.000045   0.000020  -0.000962  -0.001568  -0.000010   0.000002
    23  H   -0.000037  -0.000010  -0.004741  -0.003374   0.000003  -0.000006
    24  H    0.000019  -0.000766   0.000001   0.003657  -0.000386  -0.000037
    25  H    0.000000   0.000000   0.000000   0.000004   0.000035   0.000209
    26  H    0.000000   0.000000   0.000000  -0.000018   0.000029   0.000004
    27  H    0.000000  -0.000001   0.000000  -0.000001  -0.000842   0.000017
    28  H    0.000000   0.000000   0.000000  -0.000001   0.000001  -0.000008
    29  H    0.000000   0.000000   0.000000  -0.000801   0.000001   0.000000
    30  H    0.000000   0.000000   0.000000  -0.000015   0.000000   0.000002
    31  H    0.000000   0.000000   0.000000   0.000007   0.000000  -0.000001
             19         20         21         22         23         24
     1  C    0.000000  -0.003349   0.001324  -0.003539   0.001324  -0.001261
     2  C    0.000076  -0.021179  -0.022585  -0.021710  -0.022974   0.000113
     3  C   -0.023211   0.000000   0.000044  -0.021051  -0.021840  -0.041643
     4  C   -0.024535  -0.021720  -0.023497   0.000003   0.000054  -0.000186
     5  C    0.378286   0.001215  -0.002025   0.001103  -0.000844  -0.004749
     6  C   -0.002653   0.382582   0.381444   0.001179  -0.000871   0.000023
     7  C   -0.001486   0.001182  -0.000993   0.382283   0.378992  -0.000061
     8  O    0.000553  -0.000001  -0.000001  -0.001083   0.000665   0.259577
     9  C   -0.023478  -0.000014   0.000008  -0.000012   0.000002   0.000023
    10  C    0.001137   0.000000  -0.000001   0.000000   0.000000  -0.000578
    11  C   -0.002431   0.000000   0.000000   0.000000   0.000001   0.000007
    12  H    0.000000   0.000040  -0.000035   0.000199   0.000040  -0.000035
    13  H    0.000000   0.000184   0.000023   0.000045  -0.000037   0.000019
    14  H   -0.000001   0.000002   0.000003   0.000020  -0.000010  -0.000766
    15  H   -0.000018  -0.001128  -0.004079  -0.000962  -0.004741   0.000001
    16  H   -0.002570   0.000002  -0.000011  -0.001568  -0.003374   0.003657
    17  H    0.001960  -0.002632   0.001992  -0.000010   0.000003  -0.000386
    18  H   -0.002554  -0.001979  -0.002977   0.000002  -0.000006  -0.000037
    19  H    0.655734   0.000021   0.000328   0.000015  -0.000032   0.000015
    20  H    0.000021   0.638845  -0.023340  -0.000032  -0.000003   0.000003
    21  H    0.000328  -0.023340   0.646122  -0.000001   0.000198   0.000000
    22  H    0.000015  -0.000032  -0.000001   0.627416  -0.022011   0.000041
    23  H   -0.000032  -0.000003   0.000198  -0.022011   0.647359  -0.000054
    24  H    0.000015   0.000003   0.000000   0.000041  -0.000054   0.606514
    25  H   -0.003238  -0.000001   0.000004   0.000000   0.000000  -0.000014
    26  H   -0.000007   0.000000   0.000000   0.000000   0.000000  -0.000930
    27  H    0.000010   0.000001   0.000000   0.000000   0.000000  -0.000132
    28  H   -0.000029   0.000000   0.000000   0.000000   0.000000   0.000014
    29  H    0.000027   0.000000   0.000000   0.000001   0.000000  -0.000014
    30  H    0.000228   0.000000   0.000000   0.000000   0.000000  -0.000001
    31  H    0.000019   0.000000   0.000000   0.000000   0.000000   0.000001
             25         26         27         28         29         30
     1  C    0.000000   0.000000   0.000000   0.000000   0.000000   0.000000
     2  C   -0.000001   0.000000   0.000000   0.000000   0.000000   0.000000
     3  C    0.001071   0.000093   0.000029  -0.000007  -0.000616  -0.000069
     4  C   -0.002290   0.000029  -0.000909   0.000025  -0.000003   0.000017
     5  C   -0.024019  -0.000993  -0.001766   0.001089  -0.001291  -0.002503
     6  C    0.000011  -0.000001   0.000002   0.000000   0.000000   0.000000
     7  C   -0.000014   0.000000  -0.000001   0.000000   0.000003  -0.000003
     8  O   -0.000007   0.000002  -0.000023   0.000015   0.000044   0.000002
     9  C    0.381669  -0.020127  -0.019849  -0.020038  -0.020221  -0.020310
    10  C   -0.025669   0.382659   0.382380   0.381900  -0.002552   0.001318
    11  C   -0.024630  -0.002557   0.001322  -0.002198   0.382774   0.382024
    12  H    0.000000   0.000000   0.000000   0.000000   0.000000   0.000000
    13  H    0.000000   0.000000   0.000000   0.000000   0.000000   0.000000
    14  H    0.000000   0.000000  -0.000001   0.000000   0.000000   0.000000
    15  H    0.000000   0.000000   0.000000   0.000000   0.000000   0.000000
    16  H    0.000004  -0.000018  -0.000001  -0.000001  -0.000801  -0.000015
    17  H    0.000035   0.000029  -0.000842   0.000001   0.000001   0.000000
    18  H    0.000209   0.000004   0.000017  -0.000008   0.000000   0.000002
    19  H   -0.003238  -0.000007   0.000010  -0.000029   0.000027   0.000228
    20  H   -0.000001   0.000000   0.000001   0.000000   0.000000   0.000000
    21  H    0.000004   0.000000   0.000000   0.000000   0.000000   0.000000
    22  H    0.000000   0.000000   0.000000   0.000000   0.000001   0.000000
    23  H    0.000000   0.000000   0.000000   0.000000   0.000000   0.000000
    24  H   -0.000014  -0.000930  -0.000132   0.000014  -0.000014  -0.000001
    25  H    0.656125   0.001945  -0.001855  -0.003251   0.001926  -0.001897
    26  H    0.001945   0.617959  -0.021570  -0.021950   0.000378   0.000017
    27  H   -0.001855  -0.021570   0.635143  -0.022103   0.000016  -0.000037
    28  H   -0.003251  -0.021950  -0.022103   0.631985  -0.000015   0.000025
    29  H    0.001926   0.000378   0.000016  -0.000015   0.624771  -0.021579
    30  H   -0.001897   0.000017  -0.000037   0.000025  -0.021579   0.633346
    31  H   -0.003091  -0.000021   0.000022   0.000097  -0.021891  -0.021714
             31
     1  C    0.000000
     2  C    0.000000
     3  C    0.000021
     4  C   -0.000013
     5  C    0.001169
     6  C    0.000000
     7  C    0.000000
     8  O   -0.000001
     9  C   -0.019908
    10  C   -0.002011
    11  C    0.382497
    12  H    0.000000
    13  H    0.000000
    14  H    0.000000
    15  H    0.000000
    16  H    0.000007
    17  H    0.000000
    18  H   -0.000001
    19  H    0.000019
    20  H    0.000000
    21  H    0.000000
    22  H    0.000000
    23  H    0.000000
    24  H    0.000001
    25  H   -0.003091
    26  H   -0.000021
    27  H    0.000022
    28  H    0.000097
    29  H   -0.021891
    30  H   -0.021714
    31  H    0.630706
 Mulliken atomic charges:
              1
     1  C   -0.173886
     2  C   -0.027149
     3  C    0.074244
     4  C   -0.105921
     5  C   -0.043148
     6  C   -0.101129
     7  C   -0.112306
     8  O   -0.317773
     9  C   -0.018474
    10  C   -0.180648
    11  C   -0.173960
    12  H    0.058450
    13  H    0.053916
    14  H    0.046314
    15  H    0.049886
    16  H    0.058760
    17  H    0.042370
    18  H    0.053659
    19  H    0.047834
    20  H    0.051300
    21  H    0.048056
    22  H    0.059673
    23  H    0.048160
    24  H    0.180839
    25  H    0.046979
    26  H    0.065058
    27  H    0.050146
    28  H    0.054447
    29  H    0.059043
    30  H    0.051149
    31  H    0.054113
 Sum of Mulliken atomic charges =   0.00000
 Mulliken charges with hydrogens summed into heavy atoms:
              1
     1  C   -0.015206
     2  C    0.022737
     3  C    0.133004
     4  C   -0.009892
     5  C    0.004686
     6  C   -0.001774
     7  C   -0.004473
     8  O   -0.136934
     9  C    0.028504
    10  C   -0.010996
    11  C   -0.009656
 Sum of Mulliken charges with hydrogens summed into heavy atoms =   0.00000
 Electronic spatial extent (au):  <R**2>=           1982.8459
 Charge=              0.0000 electrons
 Dipole moment (field-independent basis, Debye):
    X=              0.3588    Y=              1.4255    Z=             -0.5135  Tot=              1.5571
 Quadrupole moment (field-independent basis, Debye-Ang):
   XX=            -67.4255   YY=            -70.8072   ZZ=            -66.8040
   XY=             -0.6182   XZ=              0.3478   YZ=              1.9347
 Traceless Quadrupole moment (field-independent basis, Debye-Ang):
   XX=              0.9201   YY=             -2.4616   ZZ=              1.5416
   XY=             -0.6182   XZ=              0.3478   YZ=              1.9347
 Octapole moment (field-independent basis, Debye-Ang**2):
  XXX=             -0.5384  YYY=             -2.5261  ZZZ=              5.1476  XYY=              0.9217
  XXY=             -1.9251  XXZ=              1.9921  XZZ=              0.7666  YZZ=             -1.3085
  YYZ=             -2.5241  XYZ=              0.2037
 Hexadecapole moment (field-independent basis, Debye-Ang**3):
 XXXX=          -1658.4668 YYYY=           -481.6810 ZZZZ=           -389.5206 XXXY=             -4.8666
 XXXZ=             -7.5550 YYYX=             -2.4421 YYYZ=              0.0259 ZZZX=              0.1392
 ZZZY=             -9.0482 XXYY=           -354.1019 XXZZ=           -351.4758 YYZZ=           -149.8166
 XXYZ=             -2.5971 YYXZ=              2.5943 ZZXY=              0.9870
 N-N= 7.047555593940D+02 E-N=-2.481351289551D+03  KE= 4.555612196892D+02
 ******************************Gaussian NBO Version 3.1******************************
             N A T U R A L   A T O M I C   O R B I T A L   A N D
          N A T U R A L   B O N D   O R B I T A L   A N A L Y S I S
 ******************************Gaussian NBO Version 3.1******************************
       /RESON  / : Allow strongly delocalized NBO set
       /NLMO   / : Form Natural Localized Molecular Orbitals
       /NMR /    : Analyze NMR Sheilding Tensor 

 Analyzing the SCF density

 Job title: comment                                                         

 Storage needed:     19864 in NPA,     23691 in NBO,     45933 in NLMO (  33549317 available)


 NATURAL POPULATIONS:  Natural atomic orbital occupancies 
                                                          
   NAO  Atom  No  lang   Type(AO)    Occupancy      Energy
 ----------------------------------------------------------
     1    C    1  S      Cor( 1S)     1.99997     -10.96706
     2    C    1  S      Val( 2S)     1.07959      -0.18313
     3    C    1  px     Val( 2p)     1.02267       0.07968
     4    C    1  py     Val( 2p)     1.03155       0.07975
     5    C    1  pz     Val( 2p)     0.99515       0.08928

     6    C    2  S      Cor( 1S)     1.99997     -10.99079
     7    C    2  S      Val( 2S)     1.08098      -0.19529
     8    C    2  px     Val( 2p)     0.98271       0.09999
     9    C    2  py     Val( 2p)     0.95834       0.10853
    10    C    2  pz     Val( 2p)     0.96696       0.10578

    11    C    3  S      Cor( 1S)     1.99989     -11.03418
    12    C    3  S      Val( 2S)     1.08736      -0.21542
    13    C    3  px     Val( 2p)     0.97112       0.08835
    14    C    3  py     Val( 2p)     0.96369       0.09369
    15    C    3  pz     Val( 2p)     0.83757       0.12111

    16    C    4  S      Cor( 1S)     1.99996     -10.98030
    17    C    4  S      Val( 2S)     1.08367      -0.19499
    18    C    4  px     Val( 2p)     0.98085       0.08957
    19    C    4  py     Val( 2p)     1.00252       0.08399
    20    C    4  pz     Val( 2p)     1.00098       0.09137

    21    C    5  S      Cor( 1S)     1.99995     -10.99127
    22    C    5  S      Val( 2S)     1.10317      -0.21626
    23    C    5  px     Val( 2p)     0.95773       0.10237
    24    C    5  py     Val( 2p)     0.96211       0.10101
    25    C    5  pz     Val( 2p)     0.99924       0.08848

    26    C    6  S      Cor( 1S)     1.99996     -10.97810
    27    C    6  S      Val( 2S)     1.08324      -0.19180
    28    C    6  px     Val( 2p)     0.97973       0.09578
    29    C    6  py     Val( 2p)     0.98784       0.09238
    30    C    6  pz     Val( 2p)     1.01299       0.08774

    31    C    7  S      Cor( 1S)     1.99996     -10.97340
    32    C    7  S      Val( 2S)     1.09414      -0.19760
    33    C    7  px     Val( 2p)     0.98379       0.09523
    34    C    7  py     Val( 2p)     1.00060       0.09159
    35    C    7  pz     Val( 2p)     1.01036       0.08750

    36    O    8  S      Cor( 1S)     1.99999     -20.13732
    37    O    8  S      Val( 2S)     1.74472      -0.99323
    38    O    8  px     Val( 2p)     1.93409      -0.35324
    39    O    8  py     Val( 2p)     1.51742      -0.19647
    40    O    8  pz     Val( 2p)     1.14220      -0.01991

    41    C    9  S      Cor( 1S)     1.99996     -10.99297
    42    C    9  S      Val( 2S)     1.08416      -0.19712
    43    C    9  px     Val( 2p)     0.95039       0.10979
    44    C    9  py     Val( 2p)     0.98809       0.10076
    45    C    9  pz     Val( 2p)     0.95457       0.11239

    46    C   10  S      Cor( 1S)     1.99997     -10.96214
    47    C   10  S      Val( 2S)     1.08026      -0.18029
    48    C   10  px     Val( 2p)     1.03020       0.08176
    49    C   10  py     Val( 2p)     1.03515       0.08490
    50    C   10  pz     Val( 2p)     0.99179       0.09085

    51    C   11  S      Cor( 1S)     1.99997     -10.96294
    52    C   11  S      Val( 2S)     1.08094      -0.18096
    53    C   11  px     Val( 2p)     1.01495       0.08585
    54    C   11  py     Val( 2p)     1.01729       0.08703
    55    C   11  pz     Val( 2p)     1.01694       0.08773

    56    H   12  S      Val( 1S)     0.95909       0.07645

    57    H   13  S      Val( 1S)     0.96324       0.07238

    58    H   14  S      Val( 1S)     0.97065       0.07058

    59    H   15  S      Val( 1S)     0.97426       0.06558

    60    H   16  S      Val( 1S)     0.97679       0.06078

    61    H   17  S      Val( 1S)     0.97798       0.06111

    62    H   18  S      Val( 1S)     0.96701       0.06666

    63    H   19  S      Val( 1S)     0.97652       0.05914

    64    H   20  S      Val( 1S)     0.96948       0.06754

    65    H   21  S      Val( 1S)     0.97263       0.06621

    66    H   22  S      Val( 1S)     0.96148       0.07661

    67    H   23  S      Val( 1S)     0.97184       0.06647

    68    H   24  S      Val( 1S)     0.80721       0.08838

    69    H   25  S      Val( 1S)     0.97822       0.06402

    70    H   26  S      Val( 1S)     0.95338       0.08713

    71    H   27  S      Val( 1S)     0.96667       0.07370

    72    H   28  S      Val( 1S)     0.96217       0.07605

    73    H   29  S      Val( 1S)     0.95897       0.08200

    74    H   30  S      Val( 1S)     0.96601       0.07407

    75    H   31  S      Val( 1S)     0.96305       0.07602


 Summary of Natural Population Analysis:                  
                                                          
                                       Natural Population 
                Natural  -----------------------------------------------
    Atom  No    Charge         Core      Valence    Rydberg      Total
 -----------------------------------------------------------------------
      C    1   -0.12893      1.99997     4.12896    0.00000     6.12893
      C    2    0.01105      1.99997     3.98899    0.00000     5.98895
      C    3    0.14037      1.99989     3.85974    0.00000     5.85963
      C    4   -0.06798      1.99996     4.06803    0.00000     6.06798
      C    5   -0.02220      1.99995     4.02225    0.00000     6.02220
      C    6   -0.06376      1.99996     4.06380    0.00000     6.06376
      C    7   -0.08885      1.99996     4.08889    0.00000     6.08885
      O    8   -0.33841      1.99999     6.33842    0.00000     8.33841
      C    9    0.02282      1.99996     3.97722    0.00000     5.97718
      C   10   -0.13737      1.99997     4.13740    0.00000     6.13737
      C   11   -0.13008      1.99997     4.13011    0.00000     6.13008
      H   12    0.04091      0.00000     0.95909    0.00000     0.95909
      H   13    0.03676      0.00000     0.96324    0.00000     0.96324
      H   14    0.02935      0.00000     0.97065    0.00000     0.97065
      H   15    0.02574      0.00000     0.97426    0.00000     0.97426
      H   16    0.02321      0.00000     0.97679    0.00000     0.97679
      H   17    0.02202      0.00000     0.97798    0.00000     0.97798
      H   18    0.03299      0.00000     0.96701    0.00000     0.96701
      H   19    0.02348      0.00000     0.97652    0.00000     0.97652
      H   20    0.03052      0.00000     0.96948    0.00000     0.96948
      H   21    0.02737      0.00000     0.97263    0.00000     0.97263
      H   22    0.03852      0.00000     0.96148    0.00000     0.96148
      H   23    0.02816      0.00000     0.97184    0.00000     0.97184
      H   24    0.19279      0.00000     0.80721    0.00000     0.80721
      H   25    0.02178      0.00000     0.97822    0.00000     0.97822
      H   26    0.04662      0.00000     0.95338    0.00000     0.95338
      H   27    0.03333      0.00000     0.96667    0.00000     0.96667
      H   28    0.03783      0.00000     0.96217    0.00000     0.96217
      H   29    0.04103      0.00000     0.95897    0.00000     0.95897
      H   30    0.03399      0.00000     0.96601    0.00000     0.96601
      H   31    0.03695      0.00000     0.96305    0.00000     0.96305
 =======================================================================
   * Total *    0.00000     21.99955    66.00045    0.00000    88.00000

                                 Natural Population      
 --------------------------------------------------------
   Core                      21.99955 ( 99.9979% of  22)
   Valence                   66.00045 (100.0007% of  66)
   Natural Minimal Basis     88.00000 (100.0000% of  88)
   Natural Rydberg Basis      0.00000 (  0.0000% of  88)
 --------------------------------------------------------

    Atom  No          Natural Electron Configuration
 ----------------------------------------------------------------------------
      C    1      [core]2S( 1.08)2p( 3.05)
      C    2      [core]2S( 1.08)2p( 2.91)
      C    3      [core]2S( 1.09)2p( 2.77)
      C    4      [core]2S( 1.08)2p( 2.98)
      C    5      [core]2S( 1.10)2p( 2.92)
      C    6      [core]2S( 1.08)2p( 2.98)
      C    7      [core]2S( 1.09)2p( 2.99)
      O    8      [core]2S( 1.74)2p( 4.59)
      C    9      [core]2S( 1.08)2p( 2.89)
      C   10      [core]2S( 1.08)2p( 3.06)
      C   11      [core]2S( 1.08)2p( 3.05)
      H   12            1S( 0.96)
      H   13            1S( 0.96)
      H   14            1S( 0.97)
      H   15            1S( 0.97)
      H   16            1S( 0.98)
      H   17            1S( 0.98)
      H   18            1S( 0.97)
      H   19            1S( 0.98)
      H   20            1S( 0.97)
      H   21            1S( 0.97)
      H   22            1S( 0.96)
      H   23            1S( 0.97)
      H   24            1S( 0.81)
      H   25            1S( 0.98)
      H   26            1S( 0.95)
      H   27            1S( 0.97)
      H   28            1S( 0.96)
      H   29            1S( 0.96)
      H   30            1S( 0.97)
      H   31            1S( 0.96)


 NATURAL BOND ORBITAL ANALYSIS:

                       Occupancies       Lewis Structure    Low   High
           Occ.    -------------------  -----------------   occ   occ
  Cycle   Thresh.   Lewis   Non-Lewis     CR  BD  3C  LP    (L)   (NL)   Dev
 =============================================================================
   1(1)    1.90    87.62707   0.37293     11  31   0   2     0      0    0.02
 -----------------------------------------------------------------------------

 Structure accepted: No low occupancy Lewis orbitals

 --------------------------------------------------------
   Core                     21.99954 ( 99.998% of  22)
   Valence Lewis            65.62753 ( 99.436% of  66)
  ==================       ============================
   Total Lewis              87.62707 ( 99.576% of  88)
  -----------------------------------------------------
   Valence non-Lewis         0.37293 (  0.424% of  88)
   Rydberg non-Lewis         0.00000 (  0.000% of  88)
  ==================       ============================
   Total non-Lewis           0.37293 (  0.424% of  88)
 --------------------------------------------------------


       (Occupancy)   Bond orbital/ Coefficients/ Hybrids
 ---------------------------------------------------------------------------------
     1. (1.99079) BD ( 1) C   1 - C   2  
                ( 51.01%)   0.7142* C   1 s( 25.93%)p 2.86( 74.07%)
                                            0.0001  0.5092 -0.3063  0.1373 -0.7925
                ( 48.99%)   0.6999* C   2 s( 25.17%)p 2.97( 74.83%)
                                            0.0000  0.5017  0.2472 -0.1432  0.8165
     2. (1.99470) BD ( 1) C   1 - H  12  
                ( 52.05%)   0.7215* C   1 s( 24.80%)p 3.03( 75.20%)
                                            0.0000  0.4980  0.3481 -0.7928  0.0481
                ( 47.95%)   0.6924* H  12 s(100.00%)
                                            1.0000
     3. (1.99470) BD ( 1) C   1 - H  13  
                ( 51.84%)   0.7200* C   1 s( 24.37%)p 3.10( 75.63%)
                                            0.0000  0.4936  0.6122  0.5900  0.1828
                ( 48.16%)   0.6940* H  13 s(100.00%)
                                            1.0000
     4. (1.99344) BD ( 1) C   1 - H  14  
                ( 51.51%)   0.7177* C   1 s( 24.91%)p 3.01( 75.09%)
                                            0.0000  0.4991 -0.6405  0.0674  0.5798
                ( 48.49%)   0.6963* H  14 s(100.00%)
                                            1.0000
     5. (1.98531) BD ( 1) C   2 - C   6  
                ( 49.57%)   0.7041* C   2 s( 25.22%)p 2.96( 74.78%)
                                            0.0000  0.5022 -0.3978  0.7659 -0.0538
                ( 50.43%)   0.7102* C   6 s( 25.46%)p 2.93( 74.54%)
                                            0.0001  0.5046  0.3611 -0.7786  0.0939
     6. (1.98531) BD ( 1) C   2 - C   7  
                ( 49.73%)   0.7052* C   2 s( 25.36%)p 2.94( 74.64%)
                                            0.0000  0.5036 -0.5362 -0.6268 -0.2570
                ( 50.27%)   0.7090* C   7 s( 25.31%)p 2.95( 74.69%)
                                            0.0001  0.5030  0.4847  0.6395  0.3210
     7. (1.98399) BD ( 1) C   2 - H  15  
                ( 51.15%)   0.7152* C   2 s( 24.24%)p 3.13( 75.76%)
                                            0.0000  0.4924  0.7022  0.0058 -0.5142
                ( 48.85%)   0.6989* H  15 s(100.00%)
                                            1.0000
     8. (1.98253) BD ( 1) C   3 - C   5  
                ( 49.94%)   0.7067* C   3 s( 25.79%)p 2.88( 74.21%)
                                            0.0001  0.5078 -0.3393  0.7891 -0.0659
                ( 50.06%)   0.7075* C   5 s( 25.38%)p 2.94( 74.62%)
                                            0.0000  0.5037  0.3254 -0.7881  0.1387
     9. (1.98725) BD ( 1) C   3 - C   7  
                ( 49.33%)   0.7023* C   3 s( 25.72%)p 2.89( 74.28%)
                                            0.0000  0.5072  0.8214  0.0050 -0.2610
                ( 50.67%)   0.7118* C   7 s( 25.39%)p 2.94( 74.61%)
                                            0.0000  0.5039 -0.8037  0.0565  0.3114
    10. (1.98893) BD ( 1) C   3 - O   8  
                ( 41.07%)   0.6409* C   3 s( 22.53%)p 3.44( 77.47%)
                                            0.0000 -0.4747  0.0231  0.2449 -0.8451
                ( 58.93%)   0.7676* O   8 s( 16.74%)p 4.97( 83.26%)
                                            0.0000 -0.4092 -0.0497 -0.3754  0.8302
    11. (1.98590) BD ( 1) C   3 - H  16  
                ( 51.28%)   0.7161* C   3 s( 25.96%)p 2.85( 74.04%)
                                           -0.0001  0.5095 -0.4580 -0.5633 -0.4619
                ( 48.72%)   0.6980* H  16 s(100.00%)
                                            1.0000
    12. (1.98468) BD ( 1) C   4 - C   5  
                ( 50.57%)   0.7111* C   4 s( 25.28%)p 2.96( 74.72%)
                                            0.0001  0.5028 -0.4976 -0.6165 -0.3457
                ( 49.43%)   0.7030* C   5 s( 25.02%)p 3.00( 74.98%)
                                            0.0000  0.5002  0.4955  0.5930  0.3906
    13. (1.98968) BD ( 1) C   4 - C   6  
                ( 50.12%)   0.7079* C   4 s( 25.10%)p 2.98( 74.90%)
                                            0.0000  0.5010  0.7951 -0.0429 -0.3391
                ( 49.88%)   0.7063* C   6 s( 25.28%)p 2.95( 74.72%)
                                            0.0000  0.5028 -0.7932 -0.0006  0.3434
    14. (1.98836) BD ( 1) C   4 - H  17  
                ( 51.12%)   0.7150* C   4 s( 24.75%)p 3.04( 75.25%)
                                            0.0001  0.4975  0.0466 -0.1135  0.8588
                ( 48.88%)   0.6991* H  17 s(100.00%)
                                            1.0000
    15. (1.98911) BD ( 1) C   4 - H  18  
                ( 51.60%)   0.7184* C   4 s( 24.86%)p 3.02( 75.14%)
                                            0.0000  0.4986 -0.3436  0.7780 -0.1674
                ( 48.40%)   0.6957* H  18 s(100.00%)
                                            1.0000
    16. (1.97891) BD ( 1) C   5 - C   9  
                ( 50.33%)   0.7095* C   5 s( 25.86%)p 2.87( 74.14%)
                                            0.0001  0.5085 -0.8053  0.0456  0.3013
                ( 49.67%)   0.7047* C   9 s( 25.46%)p 2.93( 74.54%)
                                            0.0001  0.5046  0.8281 -0.1245 -0.2102
    17. (1.98198) BD ( 1) C   5 - H  19  
                ( 51.01%)   0.7142* C   5 s( 23.75%)p 3.21( 76.25%)
                                            0.0000  0.4873 -0.0046  0.1585 -0.8587
                ( 48.99%)   0.6999* H  19 s(100.00%)
                                            1.0000
    18. (1.98992) BD ( 1) C   6 - H  20  
                ( 51.51%)   0.7177* C   6 s( 24.99%)p 3.00( 75.01%)
                                            0.0000  0.4999  0.4872  0.5976  0.3944
                ( 48.49%)   0.6963* H  20 s(100.00%)
                                            1.0000
    19. (1.99038) BD ( 1) C   6 - H  21  
                ( 51.36%)   0.7167* C   6 s( 24.26%)p 3.12( 75.74%)
                                            0.0000  0.4926 -0.0547  0.1917 -0.8471
                ( 48.64%)   0.6974* H  21 s(100.00%)
                                            1.0000
    20. (1.98861) BD ( 1) C   7 - H  22  
                ( 51.88%)   0.7203* C   7 s( 25.29%)p 2.95( 74.71%)
                                            0.0000  0.5029  0.3443 -0.7636  0.2132
                ( 48.12%)   0.6937* H  22 s(100.00%)
                                            1.0000
    21. (1.98883) BD ( 1) C   7 - H  23  
                ( 51.33%)   0.7165* C   7 s( 24.01%)p 3.17( 75.99%)
                                            0.0000  0.4900 -0.0245  0.0692 -0.8686
                ( 48.67%)   0.6976* H  23 s(100.00%)
                                            1.0000
    22. (1.98828) BD ( 1) O   8 - H  24  
                ( 59.76%)   0.7731* O   8 s( 17.15%)p 4.83( 82.85%)
                                            0.0000  0.4141  0.2198  0.7028  0.5351
                ( 40.24%)   0.6343* H  24 s(100.00%)
                                            1.0000
    23. (1.99035) BD ( 1) C   9 - C  10  
                ( 49.16%)   0.7011* C   9 s( 25.53%)p 2.92( 74.47%)
                                            0.0000  0.5053 -0.1034 -0.0797  0.8530
                ( 50.84%)   0.7130* C  10 s( 25.92%)p 2.86( 74.08%)
                                            0.0001  0.5091  0.1607  0.0452 -0.8444
    24. (1.98921) BD ( 1) C   9 - C  11  
                ( 49.13%)   0.7010* C   9 s( 24.96%)p 3.01( 75.04%)
                                            0.0000  0.4996 -0.4957 -0.5800 -0.4102
                ( 50.87%)   0.7132* C  11 s( 25.71%)p 2.89( 74.29%)
                                            0.0001  0.5071  0.5238  0.5461  0.4127
    25. (1.98371) BD ( 1) C   9 - H  25  
                ( 50.96%)   0.7138* C   9 s( 24.05%)p 3.16( 75.95%)
                                            0.0000  0.4904 -0.2405  0.8011 -0.2447
                ( 49.04%)   0.7003* H  25 s(100.00%)
                                            1.0000
    26. (1.99540) BD ( 1) C  10 - H  26  
                ( 52.41%)   0.7240* C  10 s( 24.97%)p 3.01( 75.03%)
                                            0.0000  0.4997  0.1492 -0.8037  0.2866
                ( 47.59%)   0.6898* H  26 s(100.00%)
                                            1.0000
    27. (1.99440) BD ( 1) C  10 - H  27  
                ( 51.69%)   0.7190* C  10 s( 24.81%)p 3.03( 75.19%)
                                            0.0000  0.4981  0.5096  0.5566  0.4271
                ( 48.31%)   0.6950* H  27 s(100.00%)
                                            1.0000
    28. (1.99408) BD ( 1) C  10 - H  28  
                ( 51.87%)   0.7202* C  10 s( 24.30%)p 3.11( 75.70%)
                                            0.0000  0.4930 -0.8320  0.2055  0.1499
                ( 48.13%)   0.6937* H  28 s(100.00%)
                                            1.0000
    29. (1.99522) BD ( 1) C  11 - H  29  
                ( 52.10%)   0.7218* C  11 s( 24.91%)p 3.01( 75.09%)
                                            0.0000  0.4991  0.1549 -0.8109  0.2634
                ( 47.90%)   0.6921* H  29 s(100.00%)
                                            1.0000
    30. (1.99507) BD ( 1) C  11 - H  30  
                ( 51.72%)   0.7192* C  11 s( 24.73%)p 3.04( 75.27%)
                                            0.0000  0.4973  0.1358  0.0542 -0.8552
                ( 48.28%)   0.6948* H  30 s(100.00%)
                                            1.0000
    31. (1.99466) BD ( 1) C  11 - H  31  
                ( 51.84%)   0.7200* C  11 s( 24.65%)p 3.06( 75.35%)
                                            0.0000  0.4965 -0.8266  0.2030  0.1703
                ( 48.16%)   0.6939* H  31 s(100.00%)
                                            1.0000
    32. (1.99997) CR ( 1) C   1           s(100.00%)
                                            1.0000  0.0000  0.0001  0.0000  0.0000
    33. (1.99997) CR ( 1) C   2           s(100.00%)
                                            1.0000  0.0000  0.0000  0.0000  0.0000
    34. (1.99989) CR ( 1) C   3           s(100.00%)
                                            1.0000  0.0000  0.0000 -0.0001  0.0000
    35. (1.99996) CR ( 1) C   4           s(100.00%)
                                            1.0000 -0.0001  0.0000  0.0001  0.0000
    36. (1.99995) CR ( 1) C   5           s(100.00%)
                                            1.0000  0.0000  0.0000  0.0000  0.0000
    37. (1.99996) CR ( 1) C   6           s(100.00%)
                                            1.0000  0.0000  0.0000  0.0001  0.0000
    38. (1.99996) CR ( 1) C   7           s(100.00%)
                                            1.0000  0.0000  0.0000 -0.0001  0.0000
    39. (1.99999) CR ( 1) O   8           s(100.00%)
                                            1.0000  0.0000  0.0000  0.0000  0.0000
    40. (1.99996) CR ( 1) C   9           s(100.00%)
                                            1.0000  0.0000 -0.0001  0.0000  0.0000
    41. (1.99997) CR ( 1) C  10           s(100.00%)
                                            1.0000  0.0000  0.0000  0.0000  0.0001
    42. (1.99997) CR ( 1) C  11           s(100.00%)
                                            1.0000  0.0000 -0.0001  0.0000  0.0000
    43. (1.99207) LP ( 1) O   8           s( 66.10%)p 0.51( 33.90%)
                                            0.0000  0.8130 -0.1481 -0.5439  0.1460
    44. (1.97175) LP ( 2) O   8           s(  0.01%)p 1.00( 99.99%)
                                            0.0000  0.0094  0.9630 -0.2634 -0.0568
    45. (0.01138) BD*( 1) C   1 - C   2  
                ( 48.99%)   0.6999* C   1 s( 25.93%)p 2.86( 74.07%)
                                           -0.0001 -0.5092  0.3063 -0.1373  0.7925
                ( 51.01%)  -0.7142* C   2 s( 25.17%)p 2.97( 74.83%)
                                            0.0000 -0.5017 -0.2472  0.1432 -0.8165
    46. (0.00509) BD*( 1) C   1 - H  12  
                ( 47.95%)   0.6924* C   1 s( 24.80%)p 3.03( 75.20%)
                                            0.0000 -0.4980 -0.3481  0.7928 -0.0481
                ( 52.05%)  -0.7215* H  12 s(100.00%)
                                           -1.0000
    47. (0.00488) BD*( 1) C   1 - H  13  
                ( 48.16%)   0.6940* C   1 s( 24.37%)p 3.10( 75.63%)
                                            0.0000 -0.4936 -0.6122 -0.5900 -0.1828
                ( 51.84%)  -0.7200* H  13 s(100.00%)
                                           -1.0000
    48. (0.00795) BD*( 1) C   1 - H  14  
                ( 48.49%)   0.6963* C   1 s( 24.91%)p 3.01( 75.09%)
                                            0.0000 -0.4991  0.6405 -0.0674 -0.5798
                ( 51.51%)  -0.7177* H  14 s(100.00%)
                                           -1.0000
    49. (0.01648) BD*( 1) C   2 - C   6  
                ( 50.43%)   0.7102* C   2 s( 25.22%)p 2.96( 74.78%)
                                            0.0000  0.5022 -0.3978  0.7659 -0.0538
                ( 49.57%)  -0.7041* C   6 s( 25.46%)p 2.93( 74.54%)
                                            0.0001  0.5046  0.3611 -0.7786  0.0939
    50. (0.01709) BD*( 1) C   2 - C   7  
                ( 50.27%)   0.7090* C   2 s( 25.36%)p 2.94( 74.64%)
                                            0.0000  0.5036 -0.5362 -0.6268 -0.2570
                ( 49.73%)  -0.7052* C   7 s( 25.31%)p 2.95( 74.69%)
                                            0.0001  0.5030  0.4847  0.6395  0.3210
    51. (0.00994) BD*( 1) C   2 - H  15  
                ( 48.85%)   0.6989* C   2 s( 24.24%)p 3.13( 75.76%)
                                            0.0000 -0.4924 -0.7022 -0.0058  0.5142
                ( 51.15%)  -0.7152* H  15 s(100.00%)
                                           -1.0000
    52. (0.03265) BD*( 1) C   3 - C   5  
                ( 50.06%)   0.7075* C   3 s( 25.79%)p 2.88( 74.21%)
                                            0.0001  0.5078 -0.3393  0.7891 -0.0659
                ( 49.94%)  -0.7067* C   5 s( 25.38%)p 2.94( 74.62%)
                                            0.0000  0.5037  0.3254 -0.7881  0.1387
    53. (0.03020) BD*( 1) C   3 - C   7  
                ( 50.67%)   0.7118* C   3 s( 25.72%)p 2.89( 74.28%)
                                            0.0000  0.5072  0.8214  0.0050 -0.2610
                ( 49.33%)  -0.7023* C   7 s( 25.39%)p 2.94( 74.61%)
                                            0.0000  0.5039 -0.8037  0.0565  0.3114
    54. (0.02318) BD*( 1) C   3 - O   8  
                ( 58.93%)   0.7676* C   3 s( 22.53%)p 3.44( 77.47%)
                                            0.0000 -0.4747  0.0231  0.2449 -0.8451
                ( 41.07%)  -0.6409* O   8 s( 16.74%)p 4.97( 83.26%)
                                            0.0000 -0.4092 -0.0497 -0.3754  0.8302
    55. (0.01801) BD*( 1) C   3 - H  16  
                ( 48.72%)   0.6980* C   3 s( 25.96%)p 2.85( 74.04%)
                                            0.0001 -0.5095  0.4580  0.5633  0.4619
                ( 51.28%)  -0.7161* H  16 s(100.00%)
                                           -1.0000
    56. (0.01676) BD*( 1) C   4 - C   5  
                ( 49.43%)   0.7030* C   4 s( 25.28%)p 2.96( 74.72%)
                                           -0.0001 -0.5028  0.4976  0.6165  0.3457
                ( 50.57%)  -0.7111* C   5 s( 25.02%)p 3.00( 74.98%)
                                            0.0000 -0.5002 -0.4955 -0.5930 -0.3906
    57. (0.01193) BD*( 1) C   4 - C   6  
                ( 49.88%)   0.7063* C   4 s( 25.10%)p 2.98( 74.90%)
                                            0.0000 -0.5010 -0.7951  0.0429  0.3391
                ( 50.12%)  -0.7079* C   6 s( 25.28%)p 2.95( 74.72%)
                                            0.0000 -0.5028  0.7932  0.0006 -0.3434
    58. (0.01195) BD*( 1) C   4 - H  17  
                ( 48.88%)   0.6991* C   4 s( 24.75%)p 3.04( 75.25%)
                                           -0.0001 -0.4975 -0.0466  0.1135 -0.8588
                ( 51.12%)  -0.7150* H  17 s(100.00%)
                                           -1.0000
    59. (0.00845) BD*( 1) C   4 - H  18  
                ( 48.40%)   0.6957* C   4 s( 24.86%)p 3.02( 75.14%)
                                            0.0000 -0.4986  0.3436 -0.7780  0.1674
                ( 51.60%)  -0.7184* H  18 s(100.00%)
                                           -1.0000
    60. (0.02320) BD*( 1) C   5 - C   9  
                ( 49.67%)   0.7047* C   5 s( 25.86%)p 2.87( 74.14%)
                                           -0.0001 -0.5085  0.8053 -0.0456 -0.3013
                ( 50.33%)  -0.7095* C   9 s( 25.46%)p 2.93( 74.54%)
                                           -0.0001 -0.5046 -0.8281  0.1245  0.2102
    61. (0.01099) BD*( 1) C   5 - H  19  
                ( 48.99%)   0.6999* C   5 s( 23.75%)p 3.21( 76.25%)
                                            0.0000 -0.4873  0.0046 -0.1585  0.8587
                ( 51.01%)  -0.7142* H  19 s(100.00%)
                                           -1.0000
    62. (0.00893) BD*( 1) C   6 - H  20  
                ( 48.49%)   0.6963* C   6 s( 24.99%)p 3.00( 75.01%)
                                            0.0000 -0.4999 -0.4872 -0.5976 -0.3944
                ( 51.51%)  -0.7177* H  20 s(100.00%)
                                           -1.0000
    63. (0.00884) BD*( 1) C   6 - H  21  
                ( 48.64%)   0.6974* C   6 s( 24.26%)p 3.12( 75.74%)
                                            0.0000 -0.4926  0.0547 -0.1917  0.8471
                ( 51.36%)  -0.7167* H  21 s(100.00%)
                                           -1.0000
    64. (0.00880) BD*( 1) C   7 - H  22  
                ( 48.12%)   0.6937* C   7 s( 25.29%)p 2.95( 74.71%)
                                            0.0000 -0.5029 -0.3443  0.7636 -0.2132
                ( 51.88%)  -0.7203* H  22 s(100.00%)
                                           -1.0000
    65. (0.00761) BD*( 1) C   7 - H  23  
                ( 48.67%)   0.6976* C   7 s( 24.01%)p 3.17( 75.99%)
                                            0.0000 -0.4900  0.0245 -0.0692  0.8686
                ( 51.33%)  -0.7165* H  23 s(100.00%)
                                           -1.0000
    66. (0.01202) BD*( 1) O   8 - H  24  
                ( 40.24%)   0.6343* O   8 s( 17.15%)p 4.83( 82.85%)
                                            0.0000 -0.4141 -0.2198 -0.7028 -0.5351
                ( 59.76%)  -0.7731* H  24 s(100.00%)
                                           -1.0000
    67. (0.01119) BD*( 1) C   9 - C  10  
                ( 50.84%)   0.7130* C   9 s( 25.53%)p 2.92( 74.47%)
                                            0.0000  0.5053 -0.1034 -0.0797  0.8530
                ( 49.16%)  -0.7011* C  10 s( 25.92%)p 2.86( 74.08%)
                                            0.0001  0.5091  0.1607  0.0452 -0.8444
    68. (0.01027) BD*( 1) C   9 - C  11  
                ( 50.87%)   0.7132* C   9 s( 24.96%)p 3.01( 75.04%)
                                            0.0000  0.4996 -0.4957 -0.5800 -0.4102
                ( 49.13%)  -0.7010* C  11 s( 25.71%)p 2.89( 74.29%)
                                            0.0001  0.5071  0.5238  0.5461  0.4127
    69. (0.01051) BD*( 1) C   9 - H  25  
                ( 49.04%)   0.7003* C   9 s( 24.05%)p 3.16( 75.95%)
                                            0.0000 -0.4904  0.2405 -0.8011  0.2447
                ( 50.96%)  -0.7138* H  25 s(100.00%)
                                           -1.0000
    70. (0.00724) BD*( 1) C  10 - H  26  
                ( 47.59%)   0.6898* C  10 s( 24.97%)p 3.01( 75.03%)
                                            0.0000 -0.4997 -0.1492  0.8037 -0.2866
                ( 52.41%)  -0.7240* H  26 s(100.00%)
                                           -1.0000
    71. (0.00626) BD*( 1) C  10 - H  27  
                ( 48.31%)   0.6950* C  10 s( 24.81%)p 3.03( 75.19%)
                                            0.0000 -0.4981 -0.5096 -0.5566 -0.4271
                ( 51.69%)  -0.7190* H  27 s(100.00%)
                                           -1.0000
    72. (0.00480) BD*( 1) C  10 - H  28  
[...]
   10      -0.1169       -0.2526       0.1357        -1.2933       1.1764
   11       0.2822       -0.3116       0.5937        -0.8599       1.1420
   20       4.1110       -2.1266       6.2376        -7.1103      11.2213
   21       4.6971       -3.0514       7.7485        -6.1577      10.8548
   38     200.0102       -0.0026     200.0128         0.0031     200.0071
 Sum      213.8320      -22.4659     236.2980       -26.8339     240.6660

 Contributions to Isotropic shielding for atom    8 (   363.8435 ppm):
                         Standard Origin              Atomic Origin
 NLMO      Total    Paramagnetic  Diamagnetic   Paramagnetic  Diamagnetic
   10      21.5493        7.8975      13.6518        11.0081      10.5411
   11       1.2424        0.5186       0.7238        -0.0382       1.2806
   20      -0.3497       -1.0313       0.6817        -1.2904       0.9407
   22      29.3283       13.4108      15.9174        14.7297      14.5985
   26      -0.5722       -1.4266       0.8544        -1.1368       0.5647
   39     271.1845       -0.0057     271.1902        -0.0022     271.1867
   43      34.5120        3.7685      30.7436        -2.8808      37.3928
   44       5.7700      -33.2264      38.9964       -34.0865      39.8565
 Sum      362.6646      -10.0946     372.7592       -13.6971     376.3616

 Contributions to Isotropic shielding for atom    9 (   212.8009 ppm):
                         Standard Origin              Atomic Origin
 NLMO      Total    Paramagnetic  Diamagnetic   Paramagnetic  Diamagnetic
   10      -0.0027       -0.2483       0.2456        -1.0573       1.0546
   15      -0.1065       -0.4510       0.3445        -1.0034       0.8969
   16       5.3159       -9.3579      14.6738        -2.3233       7.6393
   23      -0.4714       -6.4530       5.9816        -8.0784       7.6070
   24      -1.8248       -5.1666       3.3417        -9.3625       7.5376
   25       5.1524       -0.6609       5.8133        -5.6700      10.8223
   26       0.8169       -0.3366       1.1535        -0.2227       1.0396
   27       0.6259       -0.5060       1.1319        -0.3732       0.9991
   28       0.6035       -0.1541       0.7576        -0.4293       1.0328
   29       1.0360       -0.3479       1.3839         0.0016       1.0344
   30       0.6792       -0.6181       1.2973        -0.3573       1.0365
   31       0.6144       -0.3352       0.9495        -0.4185       1.0329
   40     199.9259       -0.0024     199.9283         0.0029     199.9230
 Sum      212.3645      -24.6380     237.0025       -29.2915     241.6560

 Contributions to Isotropic shielding for atom   10 (   224.1264 ppm):
                         Standard Origin              Atomic Origin
 NLMO      Total    Paramagnetic  Diamagnetic   Paramagnetic  Diamagnetic
   23       3.9928       -8.9762      12.9691        -3.9254       7.9182
   24      -0.3809       -0.0409      -0.3401        -1.0565       0.6756
   25       0.3068       -0.0093       0.3161        -0.7179       1.0247
   26       6.5173       -5.2203      11.7376        -4.8218      11.3392
   27       6.8968       -4.7312      11.6280        -4.1606      11.0574
   28       6.0182        3.7257       2.2925        -5.0679      11.0861
   41     200.0753       -0.0024     200.0777         0.0014     200.0739
 Sum      223.4264      -15.2545     238.6809       -19.7486     243.1750

 Contributions to Isotropic shielding for atom   11 (   221.5033 ppm):
                         Standard Origin              Atomic Origin
 NLMO      Total    Paramagnetic  Diamagnetic   Paramagnetic  Diamagnetic
   23      -0.4791        0.0269      -0.5060        -1.1925       0.7134
   24       4.3978      -11.0417      15.4395        -3.5223       7.9201
   25       0.3047        0.1820       0.1227        -0.6975       1.0022
   29       6.3740       -5.2733      11.6473        -4.8568      11.2309
   30       5.6837       -3.6300       9.3137        -5.3894      11.0731
   31       5.0976        2.9141       2.1835        -6.0124      11.1100
   42     200.0746       -0.0035     200.0781         0.0021     200.0725
 Sum      221.4533      -16.8255     238.2788       -21.6688     243.1221

 Contributions to Isotropic shielding for atom   12 (    32.4682 ppm):
                         Standard Origin              Atomic Origin
 NLMO      Total    Paramagnetic  Diamagnetic   Paramagnetic  Diamagnetic
    1       1.3449        0.2094       1.1355         0.3238       1.0211
    2      26.2343        0.1450      26.0893         0.4321      25.8022
    3       1.9038        2.3829      -0.4791         0.0712       1.8326
    4       2.0809        0.5147       1.5662         0.2509       1.8300
    6      -0.1215        0.1812      -0.3027        -1.0347       0.9132
 Sum       31.4424        3.4331      28.0092         0.0433      31.3991

 Contributions to Isotropic shielding for atom   13 (    32.5991 ppm):
                         Standard Origin              Atomic Origin
 NLMO      Total    Paramagnetic  Diamagnetic   Paramagnetic  Diamagnetic
    1       1.2394        0.5608       0.6786         0.1912       1.0482
    2       1.9430        2.3097      -0.3667         0.0828       1.8601
    3      26.3727        0.0646      26.3081         0.4473      25.9253
    4       2.0320        0.8106       1.2214         0.1735       1.8585
 Sum       31.5871        3.7456      27.8415         0.8948      30.6922

 Contributions to Isotropic shielding for atom   14 (    33.1236 ppm):
                         Standard Origin              Atomic Origin
 NLMO      Total    Paramagnetic  Diamagnetic   Paramagnetic  Diamagnetic
    1       1.6408       -1.2200       2.8608         0.7428       0.8980
    2       2.0056        0.8412       1.1644         0.1672       1.8384
    3       2.0022        1.2321       0.7701         0.1362       1.8660
    4      26.5077        0.3729      26.1349         0.3619      26.1459
 Sum       32.1563        1.2261      30.9302         1.4081      30.7482

 Contributions to Isotropic shielding for atom   15 (    32.4229 ppm):
                         Standard Origin              Atomic Origin
 NLMO      Total    Paramagnetic  Diamagnetic   Paramagnetic  Diamagnetic
    1       0.7799        2.2739      -1.4940        -0.2822       1.0621
    3       0.1989       -0.3147       0.5136        -0.8276       1.0264
    5       1.2006        1.4280      -0.2273         0.1929       1.0077
    6       1.3078        1.1863       0.1215         0.2535       1.0542
    7      26.5288       -0.3695      26.8984         0.4985      26.0304
   19       0.1178        0.0210       0.0968        -0.9445       1.0623
   21       0.0690        0.1069      -0.0379        -1.0314       1.1004
 Sum       30.2028        4.3318      25.8710        -2.1408      32.3436

 Contributions to Isotropic shielding for atom   16 (    31.3848 ppm):
                         Standard Origin              Atomic Origin
 NLMO      Total    Paramagnetic  Diamagnetic   Paramagnetic  Diamagnetic
    8       0.9508        0.3073       0.6435        -0.0910       1.0418
    9       0.6497        0.8596      -0.2100        -0.4428       1.0925
   10       0.9544        0.8065       0.1478        -1.1227       2.0771
   11      26.3846        0.3317      26.0530         0.7626      25.6220
   21       0.1599       -0.5239       0.6839        -0.9291       1.0890
   29      -0.2702       -1.3522       1.0819        -1.0172       0.7470
 Sum       28.8292        0.4290      28.4001        -2.8402      31.6694

 Contributions to Isotropic shielding for atom   17 (    33.1830 ppm):
                         Standard Origin              Atomic Origin
 NLMO      Total    Paramagnetic  Diamagnetic   Paramagnetic  Diamagnetic
   10      -0.0177       -0.2386       0.2210        -1.0765       1.0588
   12       1.3867       -0.0960       1.4826         0.5053       0.8814
   13       1.1351        0.7930       0.3421         0.1730       0.9621
   14      26.5839        0.1952      26.3887         0.3749      26.2090
   15       2.0358        1.3910       0.6448         0.2641       1.7716
   23       0.0066       -0.6545       0.6611        -1.0135       1.0201
   27      -0.3997       -1.3634       0.9637        -0.8672       0.4675
 Sum       30.7307        0.0267      30.7040        -1.6399      32.3706

 Contributions to Isotropic shielding for atom   18 (    32.7198 ppm):
                         Standard Origin              Atomic Origin
 NLMO      Total    Paramagnetic  Diamagnetic   Paramagnetic  Diamagnetic
   12       1.3721        0.6468       0.7254         0.4006       0.9715
   13       1.0586        1.4975      -0.4389         0.0283       1.0303
   14       2.1344        1.1582       0.9762         0.3842       1.7502
   15      26.3263        0.0151      26.3112         0.4291      25.8972
   19       0.2147       -0.3856       0.6004        -0.7911       1.0058
 Sum       31.1061        2.9319      28.1742         0.4512      30.6550

 Contributions to Isotropic shielding for atom   19 (    32.7524 ppm):
                         Standard Origin              Atomic Origin
 NLMO      Total    Paramagnetic  Diamagnetic   Paramagnetic  Diamagnetic
    8       1.3916        0.8429       0.5487         0.3794       1.0122
   12       1.1836        0.9203       0.2633         0.1769       1.0067
   16       1.0645        1.3686      -0.3041        -0.1004       1.1649
   17      26.4917       -0.0292      26.5209         0.4325      26.0592
   30      -0.1354       -1.4188       1.2834        -1.0079       0.8725
 Sum       29.9960        1.6838      28.3122        -0.1195      30.1155

 Contributions to Isotropic shielding for atom   20 (    32.5473 ppm):
                         Standard Origin              Atomic Origin
 NLMO      Total    Paramagnetic  Diamagnetic   Paramagnetic  Diamagnetic
    1      -0.0931       -0.0511      -0.0421        -1.1018       1.0087
    5       1.0703        1.2078      -0.1375         0.1602       0.9101
   13       1.2242        0.5925       0.6317         0.2215       1.0027
   18      26.4393        0.0149      26.4245         0.4971      25.9422
   19       2.0090        1.8552       0.1538         0.2687       1.7403
 Sum       30.6496        3.6193      27.0303         0.0458      30.6039

 Contributions to Isotropic shielding for atom   21 (    32.5682 ppm):
                         Standard Origin              Atomic Origin
 NLMO      Total    Paramagnetic  Diamagnetic   Paramagnetic  Diamagnetic
    5       1.2041        0.7560       0.4481         0.2009       1.0032
   13       1.3632        0.1273       1.2358         0.3987       0.9645
   18       1.9376        2.0159      -0.0783         0.1558       1.7818
   19      26.4863        0.0940      26.3923         0.4427      26.0436
 Sum       30.9911        2.9932      27.9979         1.1981      29.7930

 Contributions to Isotropic shielding for atom   22 (    32.0832 ppm):
                         Standard Origin              Atomic Origin
 NLMO      Total    Paramagnetic  Diamagnetic   Paramagnetic  Diamagnetic
    1      -0.0824       -0.2284       0.1460        -1.0775       0.9952
    2      -0.1336       -1.2066       1.0730        -1.0200       0.8864
    6       1.0262        1.3101      -0.2839         0.0501       0.9762
    9       1.3166        0.4066       0.9100         0.3482       0.9684
   10      -0.1038        0.1159      -0.2197        -1.6026       1.4989
   20      26.1999        0.1028      26.0971         0.4975      25.7024
   21       1.9991        1.6735       0.3256         0.3003       1.6988
 Sum       30.2222        2.1740      28.0481        -2.5041      32.7263

 Contributions to Isotropic shielding for atom   23 (    32.4951 ppm):
                         Standard Origin              Atomic Origin
 NLMO      Total    Paramagnetic  Diamagnetic   Paramagnetic  Diamagnetic
    6       1.1192        1.0288       0.0904         0.0526       1.0666
    9       1.4853        0.3254       1.1599         0.5288       0.9565
   11       0.1277        0.0295       0.0982        -0.9127       1.0404
   20       1.9376        1.7470       0.1906         0.1301       1.8075
   21      26.5011        0.0850      26.4160         0.4444      26.0567
 Sum       31.1708        3.2157      27.9551         0.2431      30.9277

 Contributions to Isotropic shielding for atom   24 (    35.2252 ppm):
                         Standard Origin              Atomic Origin
 NLMO      Total    Paramagnetic  Diamagnetic   Paramagnetic  Diamagnetic
    4      -0.4970       -1.1382       0.6412        -0.6777       0.1807
    8      -0.1454       -0.2811       0.1357        -1.0550       0.9097
   10       2.2343        1.0897       1.1446         1.5961       0.6382
   12      -0.0685       -0.2972       0.2287        -1.0303       0.9618
   22      22.6990       -0.4113      23.1103        -0.3762      23.0752
   26      -0.2361       -1.1442       0.9081        -0.9873       0.7511
   43       3.5379        1.7576       1.7803         1.5661       1.9718
   44       5.4355        2.2973       3.1382         2.2112       3.2243
 Sum       32.9598        1.8726      31.0871         1.2469      31.7128

 Contributions to Isotropic shielding for atom   25 (    32.5180 ppm):
                         Standard Origin              Atomic Origin
 NLMO      Total    Paramagnetic  Diamagnetic   Paramagnetic  Diamagnetic
   16       1.6304        0.1885       1.4419         0.5623       1.0682
   23       0.9606        1.6214      -0.6608        -0.1223       1.0828
   24       0.8532        2.1210      -1.2678        -0.1715       1.0247
   25      26.5505       -0.1711      26.7215         0.4466      26.1039
   28       0.2104       -0.3122       0.5226        -0.7941       1.0045
 Sum       30.2050        3.4476      26.7574        -0.0791      30.2841

 Contributions to Isotropic shielding for atom   26 (    32.4537 ppm):
                         Standard Origin              Atomic Origin
 NLMO      Total    Paramagnetic  Diamagnetic   Paramagnetic  Diamagnetic
   22      -0.0764       -0.0674      -0.0089        -1.0754       0.9990
   23       1.4670       -0.5418       2.0089         0.5404       0.9267
   24      -0.1164        0.0443      -0.1608        -1.0104       0.8940
   26      26.0501        0.2871      25.7631         0.4020      25.6481
   27       2.1082        0.3723       1.7359         0.3057       1.8025
   28       1.9763        2.0091      -0.0328         0.1040       1.8723
 Sum       31.4089        2.1035      29.3054        -0.7337      32.1425

 Contributions to Isotropic shielding for atom   27 (    32.8431 ppm):
                         Standard Origin              Atomic Origin
 NLMO      Total    Paramagnetic  Diamagnetic   Paramagnetic  Diamagnetic
   12      -0.0694        0.0172      -0.0866        -1.0658       0.9964
   23       1.4801       -0.6257       2.1058         0.4889       0.9912
   26       2.1324        0.3621       1.7703         0.2851       1.8473
   27      26.3974        0.2564      26.1411         0.3638      26.0336
   28       1.9604        1.9558       0.0046         0.0940       1.8664
 Sum       31.9009        1.9658      29.9351         0.1660      31.7349

 Contributions to Isotropic shielding for atom   28 (    32.5798 ppm):
                         Standard Origin              Atomic Origin
 NLMO      Total    Paramagnetic  Diamagnetic   Paramagnetic  Diamagnetic
   23       1.1537        0.9461       0.2076         0.1169       1.0368
   24      -0.1370        0.5316      -0.6686        -1.0799       0.9430
   26       2.0233        1.6178       0.4055         0.1233       1.9000
   27       2.0381        1.6092       0.4289         0.1688       1.8693
   28      26.3099       -0.0544      26.3643         0.4000      25.9099
 Sum       31.3881        4.6503      26.7377        -0.2710      31.6591

 Contributions to Isotropic shielding for atom   29 (    32.2490 ppm):
                         Standard Origin              Atomic Origin
 NLMO      Total    Paramagnetic  Diamagnetic   Paramagnetic  Diamagnetic
    8      -0.1086        0.1260      -0.2345        -1.0859       0.9773
   10       0.0032        0.0174      -0.0142        -1.1838       1.1870
   23      -0.1350        0.2260      -0.3610        -1.0430       0.9080
   24       1.5559       -1.0841       2.6400         0.6391       0.9169
   29      26.1871        0.3071      25.8800         0.4063      25.7808
   30       2.0245        0.7301       1.2945         0.2151       1.8095
   31       1.9024        1.9722      -0.0698         0.0547       1.8477
 Sum       31.4296        2.2947      29.1349        -1.9976      33.4272

 Contributions to Isotropic shielding for atom   30 (    32.5334 ppm):
                         Standard Origin              Atomic Origin
 NLMO      Total    Paramagnetic  Diamagnetic   Paramagnetic  Diamagnetic
   16      -0.0388        0.1293      -0.1681        -1.0198       0.9810
   24       1.5277       -0.6772       2.2049         0.5317       0.9960
   29       2.0649        0.6447       1.4202         0.2291       1.8358
   30      26.3923        0.2600      26.1322         0.4154      25.9768
   31       1.9144        2.2898      -0.3753         0.0709       1.8435
 Sum       31.8605        2.6466      29.2139         0.2273      31.6331

 Contributions to Isotropic shielding for atom   31 (    32.3847 ppm):
                         Standard Origin              Atomic Origin
 NLMO      Total    Paramagnetic  Diamagnetic   Paramagnetic  Diamagnetic
   23      -0.1550        0.6828      -0.8378        -1.1139       0.9589
   24       1.2206        0.4614       0.7592         0.2135       1.0071
   29       1.9863        1.5880       0.3983         0.1175       1.8689
   30       1.9335        1.9545      -0.0211         0.0891       1.8444
   31      26.3476        0.0011      26.3465         0.4400      25.9076
 Sum       31.3330        4.6879      26.6451        -0.2538      31.5868
 
 1\1\GINC-COMPUTE-10-5\SP\RHF\STO-3G\C10H20O1\YTSAI.IQUIR\03-Aug-2021\0
 \\# rhf/STO-3G nmr pop=nbo\\comment\\0,1\C,0,2.202990116,1.187651919,-
 1.782772369\C,0,0.74075139,0.880250255,-2.113438311\C,0,0.129853256,-1
 .064688474,-0.504560023\C,0,-0.39153978,1.344376529,0.131743928\C,0,-0
 .847746631,-0.123752405,0.2343843\C,0,-0.222180222,1.775606669,-1.3249
 19954\C,0,0.386863957,-0.607414978,-1.947330627\O,0,1.36963976,-1.2224
 35835,0.171327692\C,0,-1.20088665,-0.518477357,1.699137232\C,0,-0.0701
 83908,-0.37770088,2.720930993\C,0,-1.789344309,-1.931238652,1.77942809
 7\H,0,2.874759351,0.519109781,-2.331250521\H,0,2.448472656,2.214115641
 ,-2.07746928\H,0,2.42761254,1.096815375,-0.718393379\H,0,0.617289463,1
 .122179592,-3.178071829\H,0,-0.309205466,-2.066948448,-0.559263611\H,0
 ,0.548580709,1.506449513,0.668305812\H,0,-1.137267552,1.99509069,0.604
 640499\H,0,-1.796447903,-0.183021777,-0.321763283\H,0,0.112406283,2.81
 919613,-1.362442322\H,0,-1.205261534,1.749895906,-1.813073715\H,0,1.17
 4901063,-1.222999172,-2.398350345\H,0,-0.528521391,-0.795282833,-2.524
 624417\H,0,1.657905273,-0.358689135,0.504445953\H,0,-1.996139386,0.168
 865899,2.021063398\H,0,0.726304582,-1.108842746,2.559681254\H,0,0.3676
 19038,0.623838423,2.710254793\H,0,-0.456248448,-0.545941986,3.73309077
 \H,0,-1.034825319,-2.697047199,1.573148941\H,0,-2.610196924,-2.0549075
 02,1.065402262\H,0,-2.189954013,-2.124052941,2.780738063\\Version=EM64
 L-G09RevC.01\State=1-A\HF=-459.6142986\RMSD=7.184e-09\Dipole=-0.328638
 ,0.509047,-0.0902048\Quadrupole=-0.0339611,-0.9826237,1.0165848,1.8821
 173,0.1031991,0.5994788\PG=C01 [X(C10H20O1)]\\@


 FRICTION IS A DRAG,
 AND ENTROPY AIN'T WHAT IT USED TO BE.
 Job cpu time:  0 days  0 hours  0 minutes 24.3 seconds.
 File lengths (MBytes):  RWF=      5 Int=      0 D2E=      0 Chk=      1 Scr=      1
 Normal termination of Gaussian 09 at Tue Aug  3 16:35:05 2021.
