 Entering Gaussian System, Link 0=g09
 Input=/home/ytsai.iquir/menthol/02_menthol_M0076_MMFF_NMR_rhf_STO-3G_nbo.gjc
 Output=/home/ytsai.iquir/menthol/02_menthol_M0076_MMFF_NMR_rhf_STO-3G_nbo.log
 Initial command:
 /share/apps/Gaussian09/EM64T.SSE4.2-enabled/g09/l1.exe /tmp/Gau-29657.inp -scrdir=/tmp/
 Entering Link 1 = /share/apps/Gaussian09/EM64T.SSE4.2-enabled/g09/l1.exe PID=     29658.
  
 Copyright (c) 1988,1990,1992,1993,1995,1998,2003,2009,2011,
            Gaussian, Inc.  All Rights Reserved.
  
 This is part of the Gaussian(R) 09 program.  It is based on
 the Gaussian(R) 03 system (copyright 2003, Gaussian, Inc.),
 the Gaussian(R) 98 system (copyright 1998, Gaussian, Inc.),
 the Gaussian(R) 94 system (copyright 1995, Gaussian, Inc.),
 the Gaussian 92(TM) system (copyright 1992, Gaussian, Inc.),
 the Gaussian 90(TM) system (copyright 1990, Gaussian, Inc.),
 the Gaussian 88(TM) system (copyright 1988, Gaussian, Inc.),
 the Gaussian 86(TM) system (copyright 1986, Carnegie Mellon
 University), and the Gaussian 82(TM) system (copyright 1983,
 Carnegie Mellon University). Gaussian is a federally registered
 trademark of Gaussian, Inc.
  
 This software contains proprietary and confidential information,
 including trade secrets, belonging to Gaussian, Inc.
  
 This software is provided under written license and may be
 used, copied, transmitted, or stored only in accord with that
 written license.
  
 The following legend is applicable only to US Government
 contracts under FAR:
  
                    RESTRICTED RIGHTS LEGEND
  
 Use, reproduction and disclosure by the US Government is
 subject to restrictions as set forth in subparagraphs (a)
 and (c) of the Commercial Computer Software - Restricted
 Rights clause in FAR 52.227-19.
  
 Gaussian, Inc.
 340 Quinnipiac St., Bldg. 40, Wallingford CT 06492
  
  
 ---------------------------------------------------------------
 Warning -- This program may not be used in any manner that
 competes with the business of Gaussian, Inc. or will provide
 assistance to any competitor of Gaussian, Inc.  The licensee
 of this program is prohibited from giving any competitor of
 Gaussian, Inc. access to this program.  By using this program,
 the user acknowledges that Gaussian, Inc. is engaged in the
 business of creating and licensing software in the field of
 computational chemistry and represents and warrants to the
 licensee that it is not a competitor of Gaussian, Inc. and that
 it will not use this program in any manner prohibited above.
 ---------------------------------------------------------------
  

 Cite this work as:
 Gaussian 09, Revision C.01,
 M. J. Frisch, G. W. Trucks, H. B. Schlegel, G. E. Scuseria, 
 M. A. Robb, J. R. Cheeseman, G. Scalmani, V. Barone, B. Mennucci, 
 G. A. Petersson, H. Nakatsuji, M. Caricato, X. Li, H. P. Hratchian, 
 A. F. Izmaylov, J. Bloino, G. Zheng, J. L. Sonnenberg, M. Hada, 
 M. Ehara, K. Toyota, R. Fukuda, J. Hasegawa, M. Ishida, T. Nakajima, 
 Y. Honda, O. Kitao, H. Nakai, T. Vreven, J. A. Montgomery, Jr., 
 J. E. Peralta, F. Ogliaro, M. Bearpark, J. J. Heyd, E. Brothers, 
 K. N. Kudin, V. N. Staroverov, T. Keith, R. Kobayashi, J. Normand, 
 K. Raghavachari, A. Rendell, J. C. Burant, S. S. Iyengar, J. Tomasi, 
 M. Cossi, N. Rega, J. M. Millam, M. Klene, J. E. Knox, J. B. Cross, 
 V. Bakken, C. Adamo, J. Jaramillo, R. Gomperts, R. E. Stratmann, 
 O. Yazyev, A. J. Austin, R. Cammi, C. Pomelli, J. W. Ochterski, 
 R. L. Martin, K. Morokuma, V. G. Zakrzewski, G. A. Voth, 
 P. Salvador, J. J. Dannenberg, S. Dapprich, A. D. Daniels, 
 O. Farkas, J. B. Foresman, J. V. Ortiz, J. Cioslowski, 
 and D. J. Fox, Gaussian, Inc., Wallingford CT, 2010.
 
 ******************************************
 Gaussian 09:  EM64L-G09RevC.01 23-Sep-2011
                 3-Aug-2021 
 ******************************************
 %nprocshared=4
 Will use up to    4 processors via shared memory.
 ------------------------
 # rhf/STO-3G nmr pop=nbo
 ------------------------
 1/38=1/1;
 2/12=2,17=6,18=5,40=1/2;
 3/6=3,11=1,16=1,25=1,30=1,116=1/1,2,8,3;
 4//1;
 5/5=2,38=5/2;
 8/6=1,10=90,11=11/1;
 10/13=100,45=16/2;
 6/7=2,8=2,9=2,10=2,28=1,64=1/1,7;
 99/9=1/99;
 -------
 comment
 -------
 Charge =  0 Multiplicity = 1
 Symbolic Z-Matrix:
 6                    -2.17654  -0.53244  -2.90228 
 6                    -1.49016  -0.45092  -1.53956 
 6                     0.6911   -1.15356  -0.35153 
 6                    -0.36807   1.1073    0.1382 
 6                     0.11217  -0.23061   0.73893 
 6                    -0.99937   0.96949  -1.25363 
 6                    -0.34012  -1.4723   -1.4478 
 8                     1.84558  -0.58438  -0.9662 
 6                     1.03033  -0.06942   1.9872 
 6                     0.30853   0.68659   3.11072 
 6                     2.38919   0.58699   1.73218 
 1                    -2.54434  -1.54648  -3.09115 
 1                    -3.03284   0.14874  -2.9467 
 1                    -1.48909  -0.26377  -3.71153 
 1                    -2.24186  -0.70992  -0.7815 
 1                     1.02185  -2.09609   0.09936 
 1                     0.44748   1.83507   0.07346 
 1                    -1.11317   1.54672   0.81326 
 1                    -0.78781  -0.74329   1.1127 
 1                    -0.2645    1.26223  -2.01443 
 1                    -1.82538   1.68574  -1.34347 
 1                     0.1673   -1.56119  -2.41691 
 1                    -0.78692  -2.45334  -1.24022 
 1                     1.58608   0.23265  -1.42167 
 1                     1.23163  -1.07999   2.36876 
 1                     0.15305   1.73972   2.8551 
 1                    -0.66668   0.2361    3.32301 
 1                     0.89495   0.65343   4.03555 
 1                     2.29156   1.57657   1.27752 
 1                     3.01978  -0.03175   1.08887 
 1                     2.93628   0.71212   2.67376 
 
                          Input orientation:                          
 ---------------------------------------------------------------------
 Center     Atomic      Atomic             Coordinates (Angstroms)
 Number     Number       Type             X           Y           Z
 ---------------------------------------------------------------------
      1          6           0       -2.176544   -0.532443   -2.902284
      2          6           0       -1.490156   -0.450922   -1.539561
      3          6           0        0.691105   -1.153562   -0.351530
      4          6           0       -0.368074    1.107297    0.138203
      5          6           0        0.112171   -0.230607    0.738931
      6          6           0       -0.999371    0.969490   -1.253634
      7          6           0       -0.340122   -1.472296   -1.447796
      8          8           0        1.845576   -0.584384   -0.966200
      9          6           0        1.030326   -0.069420    1.987202
     10          6           0        0.308530    0.686585    3.110716
     11          6           0        2.389187    0.586991    1.732178
     12          1           0       -2.544338   -1.546483   -3.091150
     13          1           0       -3.032844    0.148744   -2.946704
     14          1           0       -1.489089   -0.263767   -3.711525
     15          1           0       -2.241856   -0.709917   -0.781496
     16          1           0        1.021851   -2.096092    0.099358
     17          1           0        0.447480    1.835073    0.073462
     18          1           0       -1.113173    1.546721    0.813255
     19          1           0       -0.787808   -0.743290    1.112698
     20          1           0       -0.264501    1.262228   -2.014429
     21          1           0       -1.825384    1.685743   -1.343471
     22          1           0        0.167303   -1.561194   -2.416909
     23          1           0       -0.786920   -2.453337   -1.240220
     24          1           0        1.586080    0.232650   -1.421673
     25          1           0        1.231628   -1.079993    2.368762
     26          1           0        0.153053    1.739716    2.855104
     27          1           0       -0.666678    0.236102    3.323013
     28          1           0        0.894952    0.653428    4.035546
     29          1           0        2.291556    1.576574    1.277520
     30          1           0        3.019778   -0.031754    1.088868
     31          1           0        2.936279    0.712117    2.673764
 ---------------------------------------------------------------------
                    Distance matrix (angstroms):
                    1          2          3          4          5
     1  C    0.000000
     2  C    1.528001   0.000000
     3  C    3.887871   2.581283   0.000000
     4  C    3.899214   2.549903   2.544244   0.000000
     5  C    4.311353   2.794194   1.541465   1.543210   0.000000
     6  C    2.521822   1.529769   2.859869   1.534515   2.577998
     7  C    2.524144   1.540845   1.538447   3.028279   2.555022
     8  O    4.464143   3.387280   1.426389   2.996954   2.457096
     9  C    5.865618   4.351600   2.600019   2.599804   1.557937
    10  C    6.619500   5.114124   3.939498   3.077437   2.550521
    11  C    6.601308   5.179850   3.202319   3.227067   2.615302
    12  H    1.095089   2.172322   4.257698   4.712472   4.843355
    13  H    1.095097   2.172449   4.722153   4.187658   4.859932
    14  H    1.095287   2.180013   4.102992   4.237558   4.729873
    15  H    2.129202   1.098541   2.997324   2.767521   2.843041
    16  H    4.656671   3.420939   1.095927   3.492149   2.171775
    17  H    4.620140   3.403241   3.028516   1.094978   2.195977
    18  H    4.388497   3.109411   3.450170   1.097252   2.160067
    19  H    4.253601   2.759212   2.121195   2.133187   1.101139
    20  H    2.768580   2.159308   3.084551   2.160684   3.154589
    21  H    2.733780   2.171673   3.921519   2.157246   3.429711
    22  H    2.605290   2.179361   2.169406   3.733104   3.425321
    23  H    2.895401   2.143318   2.159570   3.841041   3.109008
    24  H    4.115206   3.153474   1.966665   2.648950   2.656167
    25  H    6.300744   4.804043   2.774449   3.509797   2.151973
    26  H    6.613414   5.178041   4.352362   2.837795   2.891718
    27  H    6.451719   4.979432   4.156562   3.315292   2.738961
    28  H    7.679444   6.163614   4.749021   4.121955   3.501704
    29  H    6.471679   5.133033   3.559338   2.931193   2.881961
    30  H    6.571282   5.236778   2.959040   3.698478   2.935332
    31  H    7.666955   6.220779   4.204042   4.183776   3.550759
                    6          7          8          9         10
     6  C    0.000000
     7  C    2.536656   0.000000
     8  O    3.254361   2.407820   0.000000
     9  C    3.962577   3.955426   3.106831   0.000000
    10  C    4.564886   5.085425   4.538625   1.534541   0.000000
    11  C    4.532516   4.669264   2.991467   1.530495   2.497883
    12  H    3.477572   2.750396   4.971156   6.383540   7.182519
    13  H    2.770401   3.482132   5.315906   6.395340   6.938760
    14  H    2.793202   2.811607   4.331235   6.233836   7.118818
    15  H    2.141749   2.154477   4.093529   4.333947   4.858395
    16  H    3.913275   2.153551   2.024648   2.769734   4.161778
    17  H    2.145645   3.724679   2.981500   2.762101   3.250114
    18  H    2.148994   3.850250   4.057371   2.929957   2.835383
    19  H    2.928805   2.699630   3.358836   2.127079   2.690459
    20  H    1.097515   2.793638   2.993524   4.411679   5.189108
    21  H    1.096990   3.491431   4.332638   4.725363   5.039016
    22  H    3.019718   1.097525   2.423905   4.729311   5.968843
    23  H    3.429440   1.097797   3.240078   4.404735   5.476291
    24  H    2.693646   2.572505   0.970741   3.467064   4.730828
    25  H    4.722233   4.146133   3.427030   1.098803   2.126829
    26  H    4.336249   5.392142   4.782096   2.189940   1.094804
    27  H    4.646960   5.077981   5.038052   2.181183   1.095005
    28  H    5.627057   6.009255   5.239592   2.176361   1.095583
    29  H    4.195890   4.862992   3.146890   2.191722   2.843428
    30  H    4.758504   4.449579   2.430525   2.183196   3.457564
    31  H    5.565971   5.700327   4.014958   2.171365   2.663953
                   11         12         13         14         15
    11  C    0.000000
    12  H    7.221902   0.000000
    13  H    7.175125   1.770112   0.000000
    14  H    6.737857   1.773070   1.771524   0.000000
    15  H    5.426517   2.475043   2.459896   3.057904   0.000000
    16  H    3.425587   4.816546   5.546020   4.917832   3.653652
    17  H    2.842407   5.513679   4.906909   4.741472   3.800060
    18  H    3.745934   5.182714   4.447108   4.888028   2.984891
    19  H    3.499528   4.626322   4.723839   4.898456   2.388167
    20  H    4.640589   3.774366   3.126132   2.590060   3.052771
    21  H    5.331930   3.744136   2.527979   3.085670   2.495686
    22  H    5.173624   2.794246   3.666812   2.470421   3.033693
    23  H    5.307203   2.708661   3.837589   3.375590   2.316632
    24  H    3.273731   4.797168   4.864897   3.866073   3.993915
    25  H    2.126974   6.654785   6.924572   6.711067   4.703847
    26  H    2.755001   7.309785   6.807504   7.059121   4.996114
    27  H    3.462974   6.916986   6.701920   7.100068   4.497014
    28  H    2.746389   8.213289   8.027085   8.157328   5.907806
    29  H    1.093399   7.226661   6.944926   6.524623   5.478998
    30  H    1.092858   7.122242   7.276857   6.589953   5.625208
    31  H    1.096153   8.268777   8.218119   7.829952   6.385459
                   16         17         18         19         20
    16  H    0.000000
    17  H    3.972988   0.000000
    18  H    4.282297   1.751022   0.000000
    19  H    2.476247   3.042023   2.332312   0.000000
    20  H    4.171464   2.279113   2.965970   3.751650   0.000000
    21  H    4.948816   2.682519   2.275531   3.606873   1.750972
    22  H    2.710714   4.220791   4.661836   3.746909   2.884468
    23  H    2.278979   4.651877   4.508178   2.908692   3.831154
    24  H    2.838122   2.469736   3.742680   3.607054   2.199100
    25  H    2.495327   3.792216   3.849327   2.401913   5.190064
    26  H    4.802330   2.798806   2.410336   3.175927   4.910672
    27  H    4.322293   3.789148   2.866350   2.420614   5.450043
    28  H    4.803076   4.158681   3.900473   3.650417   6.190086
    29  H    4.060628   2.217475   3.436366   3.858940   4.179614
    30  H    3.038476   3.336587   4.432700   3.873572   4.700142
    31  H    4.263642   3.770507   4.533885   4.292314   5.703225
                   21         22         23         24         25
    21  H    0.000000
    22  H    3.957988   0.000000
    23  H    4.268612   1.758140   0.000000
    24  H    3.708865   2.494254   3.588674   0.000000
    25  H    5.547548   4.926153   4.357220   4.026918   0.000000
    26  H    4.641677   6.220155   5.936070   4.755590   3.057877
    27  H    5.021965   6.072273   5.298173   5.252331   2.499254
    28  H    6.115531   6.860626   6.349361   5.516878   2.428223
    29  H    4.881670   5.292149   5.661821   3.096687   3.061308
    30  H    5.686973   4.771401   5.077368   2.903138   2.436066
    31  H    6.305518   6.224960   6.261117   4.338839   2.492092
                   26         27         28         29         30
    26  H    0.000000
    27  H    1.775317   0.000000
    28  H    1.767449   1.766509   0.000000
    29  H    2.662440   3.838236   3.226361   0.000000
    30  H    3.804709   4.318925   3.696927   1.775561   0.000000
    31  H    2.972405   3.691804   2.454569   1.764214   1.752773
                   31
    31  H    0.000000
 Stoichiometry    C10H20O
 Framework group  C1[X(C10H20O)]
 Deg. of freedom    87
 Full point group                 C1      NOp   1
 Largest Abelian subgroup         C1      NOp   1
 Largest concise Abelian subgroup C1      NOp   1
                         Standard orientation:                         
 ---------------------------------------------------------------------
 Center     Atomic      Atomic             Coordinates (Angstroms)
 Number     Number       Type             X           Y           Z
 ---------------------------------------------------------------------
      1          6           0       -3.634994   -0.466139   -0.070147
      2          6           0       -2.124781   -0.482777   -0.302025
      3          6           0       -0.120880    1.124092   -0.557705
      4          6           0        0.135449   -1.054926    0.730454
      5          6           0        0.651677   -0.205442   -0.449962
      6          6           0       -1.380343   -0.955758    0.947892
      7          6           0       -1.629628    0.902293   -0.760946
      8          8           0        0.066385    1.938320    0.598388
      9          6           0        2.200866   -0.043767   -0.482223
     10          6           0        2.897311   -1.407638   -0.580399
     11          6           0        2.810369    0.749460    0.676101
     12          1           0       -4.162765   -0.147464   -0.975202
     13          1           0       -3.997671   -1.464645    0.195727
     14          1           0       -3.906227    0.218517    0.740614
     15          1           0       -1.928034   -1.203033   -1.107826
     16          1           0        0.261986    1.706539   -1.403415
     17          1           0        0.633847   -0.786360    1.667710
     18          1           0        0.389265   -2.105802    0.542842
     19          1           0        0.405465   -0.765259   -1.365655
     20          1           0       -1.582185   -0.265118    1.776634
     21          1           0       -1.759037   -1.932691    1.272823
     22          1           0       -2.191096    1.694955   -0.250062
     23          1           0       -1.861413    0.997221   -1.829787
     24          1           0       -0.305343    1.478084    1.368025
     25          1           0        2.446468    0.500432   -1.404663
     26          1           0        2.788294   -1.985267    0.343211
     27          1           0        2.487984   -1.998476   -1.406472
     28          1           0        3.969399   -1.279913   -0.766448
     29          1           0        2.553927    0.322766    1.649595
     30          1           0        2.491918    1.794746    0.658611
     31          1           0        3.903872    0.757821    0.600391
 ---------------------------------------------------------------------
 Rotational constants (GHZ):      1.9485938      0.6866503      0.6015365
 Standard basis: STO-3G (5D, 7F)
 There are    75 symmetry adapted basis functions of A   symmetry.
 Integral buffers will be    131072 words long.
 Raffenetti 1 integral format.
 Two-electron integral symmetry is turned on.
    75 basis functions,   225 primitive gaussians,    75 cartesian basis functions
    44 alpha electrons       44 beta electrons
       nuclear repulsion energy       695.8094043780 Hartrees.
 NAtoms=   31 NActive=   31 NUniq=   31 SFac= 1.00D+00 NAtFMM=   60 NAOKFM=F Big=F
 One-electron integrals computed using PRISM.
 NBasis=    75 RedAO= T  NBF=    75
 NBsUse=    75 1.00D-06 NBFU=    75
 Harris functional with IExCor=  205 diagonalized for initial guess.
 ExpMin= 1.69D-01 ExpMax= 1.31D+02 ExpMxC= 1.31D+02 IAcc=1 IRadAn=         1 AccDes= 0.00D+00
 HarFok:  IExCor=  205 AccDes= 0.00D+00 IRadAn=         1 IDoV= 1
 ScaDFX=  1.000000  1.000000  1.000000  1.000000
 FoFCou: FMM=F IPFlag=           0 FMFlag=      100000 FMFlg1=           0
         NFxFlg=           0 DoJE=T BraDBF=F KetDBF=T FulRan=T
         Omega=  0.000000  0.000000  1.000000  0.000000  0.000000 ICntrl=     500 IOpCl=  0
         NMat0=    1 NMatS0=    1 NMatT0=    0 NMatD0=    1 NMtDS0=    0 NMtDT0=    0
         I1Cent=           4 NGrid=           0.
 Petite list used in FoFCou.
 Initial guess orbital symmetries:
       Occupied  (A) (A) (A) (A) (A) (A) (A) (A) (A) (A) (A) (A)
                 (A) (A) (A) (A) (A) (A) (A) (A) (A) (A) (A) (A)
                 (A) (A) (A) (A) (A) (A) (A) (A) (A) (A) (A) (A)
                 (A) (A) (A) (A) (A) (A) (A) (A)
       Virtual   (A) (A) (A) (A) (A) (A) (A) (A) (A) (A) (A) (A)
                 (A) (A) (A) (A) (A) (A) (A) (A) (A) (A) (A) (A)
                 (A) (A) (A) (A) (A) (A) (A)
 The electronic state of the initial guess is 1-A.
 Requested convergence on RMS density matrix=1.00D-08 within 128 cycles.
 Requested convergence on MAX density matrix=1.00D-06.
 Requested convergence on             energy=1.00D-06.
 No special actions if energy rises.
 Keep R1 ints in memory in canonical form, NReq=4898789.
 SCF Done:  E(RHF) =  -459.610500492     A.U. after   10 cycles
             Convg  =    0.9957D-08             -V/T =  2.0089
 Range of M.O.s used for correlation:     1    75
 NBasis=    75 NAE=    44 NBE=    44 NFC=     0 NFV=     0
 NROrb=     75 NOA=    44 NOB=    44 NVA=    31 NVB=    31
          Differentiating once with respect to magnetic field using GIAOs.
          Electric field/nuclear overlap derivatives assumed to be zero.
          Keep R3 ints in memory in canonical form, NReq=4863575.
 FoFCou: FMM=F IPFlag=           0 FMFlag=           0 FMFlg1=           0
         NFxFlg=           0 DoJE=F BraDBF=F KetDBF=T FulRan=T
         Omega=  0.000000  0.000000  1.000000  0.000000  0.000000 ICntrl=    6100 IOpCl=  0
         NMat0=    1 NMatS0=    1 NMatT0=    0 NMatD0=    1 NMtDS0=    0 NMtDT0=    0
         I1Cent=           7 NGrid=          31.
 Symmetry not used in FoFCou.
          There are     3 degrees of freedom in the 1st order CPHF.  IDoFFX=0.
      3 vectors produced by pass  0 Test12= 4.55D-14 3.33D-08 XBig12= 7.27D+00 3.92D-01.
 AX will form     3 AO Fock derivatives at one time.
      3 vectors produced by pass  1 Test12= 4.55D-14 3.33D-08 XBig12= 1.05D-02 1.56D-02.
      3 vectors produced by pass  2 Test12= 4.55D-14 3.33D-08 XBig12= 6.48D-05 2.90D-03.
      3 vectors produced by pass  3 Test12= 4.55D-14 3.33D-08 XBig12= 1.70D-06 3.63D-04.
      3 vectors produced by pass  4 Test12= 4.55D-14 3.33D-08 XBig12= 2.46D-08 3.86D-05.
      3 vectors produced by pass  5 Test12= 4.55D-14 3.33D-08 XBig12= 4.25D-10 5.01D-06.
      3 vectors produced by pass  6 Test12= 4.55D-14 3.33D-08 XBig12= 5.48D-12 5.68D-07.
      1 vectors produced by pass  7 Test12= 4.55D-14 3.33D-08 XBig12= 6.33D-14 3.83D-08.
 Inverted reduced A of dimension    22 with in-core refinement.
 Calculating GIAO nuclear magnetic shielding tensors.
 SCF GIAO Magnetic shielding tensor (ppm):
      1  C    Isotropic =   221.2740   Anisotropy =    27.8618
   XX=   239.4699   YX=     3.4062   ZX=    -1.4158
   XY=     0.8977   YY=   214.2285   ZY=    -0.6462
   XZ=    -3.4657   YZ=     1.0072   ZZ=   210.1236
   Eigenvalues:   209.8916   214.0819   239.8486
      2  C    Isotropic =   217.1660   Anisotropy =     8.7797
   XX=   222.6097   YX=     2.3147   ZX=     2.0613
   XY=     1.3187   YY=   214.6732   ZY=    -4.3047
   XZ=    -1.0010   YZ=    -3.4374   ZZ=   214.2150
   Eigenvalues:   210.3470   218.1317   223.0191
      3  C    Isotropic =   188.5468   Anisotropy =    31.0937
   XX=   181.6699   YX=    -0.6399   ZX=     6.0588
   XY=    -3.1100   YY=   187.1295   ZY=    16.8922
   XZ=     3.6404   YZ=    15.7070   ZZ=   196.8409
   Eigenvalues:   172.7522   183.6122   209.2759
      4  C    Isotropic =   221.7783   Anisotropy =    16.7263
   XX=   231.8154   YX=    -0.9549   ZX=    -3.8402
   XY=    -0.3089   YY=   216.0246   ZY=    -6.9516
   XZ=    -3.9747   YZ=    -8.1714   ZZ=   217.4950
   Eigenvalues:   208.7407   223.6651   232.9292
      5  C    Isotropic =   211.8399   Anisotropy =    17.6667
   XX=   223.4802   YX=    -4.7746   ZX=    -2.0385
   XY=     2.4337   YY=   209.7071   ZY=    -1.4889
   XZ=     0.0606   YZ=    -0.3707   ZZ=   202.3325
   Eigenvalues:   202.1572   209.7448   223.6177
      6  C    Isotropic =   218.0069   Anisotropy =    19.2929
   XX=   227.8856   YX=    -1.7372   ZX=     4.2727
   XY=    -2.9256   YY=   208.9482   ZY=    -5.6225
   XZ=     6.3919   YZ=    -4.3112   ZZ=   217.1868
   Eigenvalues:   206.6134   216.5383   230.8688
      7  C    Isotropic =   213.1112   Anisotropy =    21.7456
   XX=   225.6076   YX=     2.1124   ZX=    -0.6008
   XY=     7.6487   YY=   215.6961   ZY=     3.7703
   XZ=    -0.8171   YZ=    -1.1789   ZZ=   198.0300
   Eigenvalues:   197.8927   213.8327   227.6083
      8  O    Isotropic =   352.5716   Anisotropy =    62.9898
   XX=   359.3647   YX=    17.8871   ZX=   -22.8159
   XY=    24.6034   YY=   344.1876   ZY=   -40.4652
   XZ=   -11.4808   YZ=    -8.2191   ZZ=   354.1624
   Eigenvalues:   322.9214   340.2285   394.5647
      9  C    Isotropic =   212.8311   Anisotropy =    16.9900
   XX=   223.7628   YX=    -1.8448   ZX=    -3.8536
   XY=    -0.0008   YY=   209.4721   ZY=     3.5320
   XZ=    -0.8150   YZ=     1.5586   ZZ=   205.2585
   Eigenvalues:   203.9084   210.4271   224.1578
     10  C    Isotropic =   220.7429   Anisotropy =    26.5846
   XX=   221.4434   YX=    -9.7567   ZX=    -1.4815
   XY=    -9.6391   YY=   231.2024   ZY=     9.0326
   XZ=     0.9968   YZ=     4.8630   ZZ=   209.5830
   Eigenvalues:   206.9806   216.7823   238.4660
     11  C    Isotropic =   224.3838   Anisotropy =    20.9263
   XX=   224.5418   YX=     4.3754   ZX=     5.3850
   XY=     1.9482   YY=   223.5308   ZY=     9.8440
   XZ=     5.7726   YZ=    12.4870   ZZ=   225.0787
   Eigenvalues:   212.8877   221.9290   238.3346
     12  H    Isotropic =    32.4127   Anisotropy =    13.8515
   XX=    36.8134   YX=    -1.0558   ZX=     6.2896
   XY=    -0.9292   YY=    27.3663   ZY=    -2.5194
   XZ=     5.8648   YZ=    -2.2901   ZZ=    33.0584
   Eigenvalues:    26.2557    29.3353    41.6470
     13  H    Isotropic =    32.5441   Anisotropy =    13.8184
   XX=    35.0064   YX=     6.1364   ZX=    -1.0452
   XY=     5.8631   YY=    35.6070   ZY=    -2.5089
   XZ=    -1.0746   YZ=    -2.5052   ZZ=    27.0189
   Eigenvalues:    26.2820    29.5939    41.7564
     14  H    Isotropic =    32.8068   Anisotropy =    11.6325
   XX=    34.9987   YX=    -2.9853   ZX=    -4.0100
   XY=    -2.7712   YY=    30.8281   ZY=     4.2250
   XZ=    -4.2659   YZ=     4.1924   ZZ=    32.5937
   Eigenvalues:    27.3807    30.4779    40.5618
     15  H    Isotropic =    32.7400   Anisotropy =    10.8014
   XX=    31.6692   YX=     0.4088   ZX=     0.3065
   XY=     0.3157   YY=    32.5226   ZY=     6.6013
   XZ=     0.2350   YZ=     6.5967   ZZ=    34.0282
   Eigenvalues:    26.6320    31.6470    39.9409
     16  H    Isotropic =    31.3234   Anisotropy =    11.4247
   XX=    30.4469   YX=     1.2550   ZX=    -1.7688
   XY=     1.3355   YY=    30.4222   ZY=    -5.8241
   XZ=    -2.2167   YZ=    -6.9382   ZZ=    33.1010
   Eigenvalues:    25.2284    29.8020    38.9399
     17  H    Isotropic =    32.7607   Anisotropy =    10.8653
   XX=    34.5982   YX=     1.4799   ZX=     3.6824
   XY=     1.1706   YY=    26.2928   ZY=    -0.4743
   XZ=     3.8301   YZ=    -0.9425   ZZ=    37.3909
   Eigenvalues:    25.9233    32.3545    40.0042
     18  H    Isotropic =    32.4652   Anisotropy =    12.6202
   XX=    32.4174   YX=    -3.0960   ZX=    -2.5216
   XY=    -3.0464   YY=    39.7534   ZY=    -1.3432
   XZ=    -2.2487   YZ=    -1.1803   ZZ=    25.2246
   Eigenvalues:    24.2092    32.3077    40.8786
     19  H    Isotropic =    32.6721   Anisotropy =     9.3962
   XX=    33.2415   YX=     0.0182   ZX=     0.9661
   XY=    -0.5267   YY=    29.2545   ZY=     5.7779
   XZ=     0.6856   YZ=     5.5874   ZZ=    35.5203
   Eigenvalues:    25.8430    33.2371    38.9362
     20  H    Isotropic =    33.2266   Anisotropy =    10.6795
   XX=    32.2001   YX=    -1.1267   ZX=    -2.3021
   XY=    -0.9842   YY=    29.3385   ZY=     4.0305
   XZ=    -2.3645   YZ=     3.5392   ZZ=    38.1413
   Eigenvalues:    27.9264    31.4072    40.3462
     21  H    Isotropic =    32.4395   Anisotropy =    13.7670
   XX=    32.4355   YX=     3.7902   ZX=    -1.5037
   XY=     3.5643   YY=    36.4021   ZY=    -6.4388
   XZ=    -1.5039   YZ=    -6.2483   ZZ=    28.4810
   Eigenvalues:    24.9292    30.7719    41.6175
     22  H    Isotropic =    32.5114   Anisotropy =    11.7224
   XX=    34.6868   YX=    -4.7192   ZX=    -0.9062
   XY=    -3.8612   YY=    36.4879   ZY=     1.8408
   XZ=    -1.3519   YZ=     2.0610   ZZ=    26.3593
   Eigenvalues:    25.9812    31.2266    40.3263
     23  H    Isotropic =    32.0039   Anisotropy =    13.5680
   XX=    30.3397   YX=     0.2329   ZX=     4.1917
   XY=     0.5239   YY=    27.5500   ZY=    -3.8816
   XZ=     4.1529   YZ=    -4.7930   ZZ=    38.1220
   Eigenvalues:    25.2409    29.7216    41.0493
     24  H    Isotropic =    35.1151   Anisotropy =    10.9752
   XX=    29.8148   YX=     2.7553   ZX=    -4.7601
   XY=     3.0690   YY=    34.4484   ZY=    -0.6491
   XZ=    -3.4023   YZ=     1.6037   ZZ=    41.0823
   Eigenvalues:    27.2992    35.6144    42.4319
     25  H    Isotropic =    32.3343   Anisotropy =    12.3947
   XX=    31.2695   YX=     1.4095   ZX=    -4.0316
   XY=     0.9261   YY=    29.7445   ZY=    -5.1230
   XZ=    -3.8216   YZ=    -5.1447   ZZ=    35.9889
   Eigenvalues:    26.6131    29.7924    40.5974
     26  H    Isotropic =    32.5681   Anisotropy =     9.5615
   XX=    31.0394   YX=    -2.7418   ZX=    -0.4791
   XY=    -2.8595   YY=    34.5312   ZY=    -4.8715
   XZ=    -0.2969   YZ=    -5.0393   ZZ=    32.1337
   Eigenvalues:    27.0862    31.6757    38.9424
     27  H    Isotropic =    32.5847   Anisotropy =    12.3412
   XX=    30.5051   YX=    -0.8666   ZX=     0.4449
   XY=    -0.6623   YY=    34.0605   ZY=     7.4699
   XZ=     0.5110   YZ=     6.8687   ZZ=    33.1885
   Eigenvalues:    26.2626    30.6793    40.8121
     28  H    Isotropic =    32.4434   Anisotropy =    14.7467
   XX=    41.0851   YX=    -2.1627   ZX=    -3.3213
   XY=    -2.5651   YY=    29.0496   ZY=     1.4295
   XZ=    -2.9347   YZ=     1.4247   ZZ=    27.1953
   Eigenvalues:    26.1898    28.8658    42.2745
     29  H    Isotropic =    32.7482   Anisotropy =     9.3381
   XX=    31.4423   YX=     1.8337   ZX=     0.7713
   XY=     1.4870   YY=    28.0427   ZY=    -1.0756
   XZ=     1.0886   YZ=    -1.3815   ZZ=    38.7596
   Eigenvalues:    27.1745    32.0965    38.9736
     30  H    Isotropic =    31.9008   Anisotropy =    10.7985
   XX=    31.5605   YX=    -0.1261   ZX=     1.4275
   XY=    -0.2800   YY=    38.5118   ZY=     2.6292
   XZ=     1.5837   YZ=     2.9914   ZZ=    25.6302
   Eigenvalues:    24.7086    31.8941    39.0998
     31  H    Isotropic =    32.6298   Anisotropy =    14.7953
   XX=    41.7456   YX=     2.7762   ZX=     1.4454
   XY=     2.3916   YY=    28.6617   ZY=     1.9649
   XZ=     1.7977   YZ=     1.8438   ZZ=    27.4821
   Eigenvalues:    26.0744    29.3216    42.4934
 End of Minotr Frequency-dependent properties file   721 does not exist.
 End of Minotr Frequency-dependent properties file   722 does not exist.

 **********************************************************************

            Population analysis using the SCF density.

 **********************************************************************

 Orbital symmetries:
       Occupied  (A) (A) (A) (A) (A) (A) (A) (A) (A) (A) (A) (A)
                 (A) (A) (A) (A) (A) (A) (A) (A) (A) (A) (A) (A)
                 (A) (A) (A) (A) (A) (A) (A) (A) (A) (A) (A) (A)
                 (A) (A) (A) (A) (A) (A) (A) (A)
       Virtual   (A) (A) (A) (A) (A) (A) (A) (A) (A) (A) (A) (A)
                 (A) (A) (A) (A) (A) (A) (A) (A) (A) (A) (A) (A)
                 (A) (A) (A) (A) (A) (A) (A)
 The electronic state is 1-A.
 Alpha  occ. eigenvalues --  -20.23430 -11.08497 -11.04975 -11.04590 -11.04353
 Alpha  occ. eigenvalues --  -11.04179 -11.03915 -11.03597 -11.03498 -11.02912
 Alpha  occ. eigenvalues --  -11.02225  -1.27740  -1.08162  -1.03738  -0.96987
 Alpha  occ. eigenvalues --   -0.95363  -0.88445  -0.88070  -0.80519  -0.78327
 Alpha  occ. eigenvalues --   -0.73773  -0.68348  -0.63156  -0.61070  -0.59132
 Alpha  occ. eigenvalues --   -0.58019  -0.54655  -0.54571  -0.53519  -0.52646
 Alpha  occ. eigenvalues --   -0.51828  -0.50451  -0.49205  -0.47588  -0.47210
 Alpha  occ. eigenvalues --   -0.46258  -0.43474  -0.43054  -0.42572  -0.42242
 Alpha  occ. eigenvalues --   -0.39848  -0.38725  -0.36125  -0.32305
 Alpha virt. eigenvalues --    0.52758   0.55766   0.57022   0.58074   0.60620
 Alpha virt. eigenvalues --    0.61626   0.61785   0.64020   0.64914   0.66330
 Alpha virt. eigenvalues --    0.67389   0.69596   0.71077   0.71275   0.71609
 Alpha virt. eigenvalues --    0.73130   0.73454   0.73962   0.74570   0.76631
 Alpha virt. eigenvalues --    0.77029   0.78062   0.78494   0.78935   0.79954
 Alpha virt. eigenvalues --    0.81375   0.81692   0.82848   0.85032   0.85930
 Alpha virt. eigenvalues --    0.87518
          Condensed to atoms (all electrons):
              1          2          3          4          5          6
     1  C    4.739295   0.365873   0.000653   0.000708   0.000031  -0.023881
     2  C    0.365873   4.747995  -0.019729  -0.021016  -0.008091   0.363915
     3  C    0.000653  -0.019729   4.741467  -0.022917   0.354979  -0.005398
     4  C    0.000708  -0.021016  -0.022917   4.765665   0.360103   0.359363
     5  C    0.000031  -0.008091   0.354979   0.360103   4.791202  -0.019536
     6  C   -0.023881   0.363915  -0.005398   0.359363  -0.019536   4.762684
     7  C   -0.023796   0.360727   0.354888  -0.002975  -0.023587  -0.023138
     8  O   -0.000002   0.000191   0.268696  -0.000894  -0.017433  -0.000211
     9  C    0.000000   0.000027  -0.019148  -0.019339   0.359262   0.000540
    10  C    0.000000   0.000000   0.000605  -0.002029  -0.022522   0.000009
    11  C    0.000000   0.000000  -0.000883  -0.001798  -0.019178   0.000006
    12  H    0.382531  -0.020269   0.000011  -0.000017   0.000000   0.001291
    13  H    0.382383  -0.020251  -0.000016   0.000013   0.000000  -0.002212
    14  H    0.382121  -0.020809   0.000012   0.000006   0.000000  -0.002202
    15  H   -0.024578   0.382539  -0.000144  -0.002002  -0.000517  -0.024792
    16  H   -0.000012   0.001108   0.380297   0.001129  -0.023529   0.000023
    17  H   -0.000015   0.001193  -0.000377   0.382204  -0.020956  -0.023124
    18  H   -0.000011   0.000336   0.001253   0.383681  -0.021851  -0.022848
    19  H    0.000003  -0.000554  -0.023529  -0.024296   0.378606  -0.000448
    20  H   -0.002184  -0.023326   0.000190  -0.023240   0.000461   0.380776
    21  H   -0.002348  -0.020659   0.000023  -0.021794   0.001071   0.383620
    22  H   -0.004572  -0.021668  -0.021549  -0.000002   0.001063  -0.000345
    23  H   -0.000416  -0.022775  -0.020663   0.000020   0.000555   0.001296
    24  H   -0.000011   0.000045  -0.041362  -0.000109  -0.002250  -0.000744
    25  H    0.000000  -0.000001  -0.002236   0.001090  -0.023698  -0.000013
    26  H    0.000000   0.000000  -0.000003  -0.000595  -0.001318   0.000004
    27  H    0.000000   0.000000   0.000017  -0.000069  -0.002564  -0.000002
    28  H    0.000000   0.000000  -0.000013   0.000019   0.001166   0.000000
    29  H    0.000000   0.000000   0.000017  -0.000638  -0.001812  -0.000007
    30  H    0.000000   0.000000  -0.000163   0.000036  -0.001012  -0.000001
    31  H    0.000000   0.000000   0.000002   0.000016   0.001076   0.000000
              7          8          9         10         11         12
     1  C   -0.023796  -0.000002   0.000000   0.000000   0.000000   0.382531
     2  C    0.360727   0.000191   0.000027   0.000000   0.000000  -0.020269
     3  C    0.354888   0.268696  -0.019148   0.000605  -0.000883   0.000011
     4  C   -0.002975  -0.000894  -0.019339  -0.002029  -0.001798  -0.000017
     5  C   -0.023587  -0.017433   0.359262  -0.022522  -0.019178   0.000000
     6  C   -0.023138  -0.000211   0.000540   0.000009   0.000006   0.001291
     7  C    4.790519  -0.021102   0.000571  -0.000004  -0.000002  -0.002122
     8  O   -0.021102   7.850811  -0.000254  -0.000002  -0.001274   0.000000
     9  C    0.000571  -0.000254   4.736140   0.363883   0.364538   0.000000
    10  C   -0.000004  -0.000002   0.363883   4.744911  -0.026725   0.000000
    11  C   -0.000002  -0.001274   0.364538  -0.026725   4.744168   0.000000
    12  H   -0.002122   0.000000   0.000000   0.000000   0.000000   0.628583
    13  H    0.001271   0.000000   0.000000   0.000000   0.000000  -0.021541
    14  H   -0.002278   0.000000   0.000000   0.000000   0.000000  -0.021608
    15  H   -0.023675  -0.000007   0.000001   0.000000   0.000000  -0.002314
    16  H   -0.024014  -0.019986  -0.002316   0.000013   0.000000  -0.000001
    17  H    0.000024  -0.000019  -0.002888  -0.000063  -0.000605   0.000000
    18  H    0.000004   0.000001  -0.000393  -0.000598   0.000036   0.000000
    19  H   -0.002344   0.000599  -0.024266  -0.003024   0.001152   0.000001
    20  H   -0.002054  -0.000419  -0.000011   0.000000   0.000002   0.000005
    21  H    0.001215   0.000003  -0.000010   0.000000   0.000000   0.000021
    22  H    0.380994  -0.002513  -0.000012   0.000000   0.000000  -0.000076
    23  H    0.380555   0.000678  -0.000008   0.000000   0.000000   0.000213
    24  H   -0.002784   0.258272   0.000028  -0.000001   0.000075   0.000000
    25  H    0.000015   0.000047   0.381472  -0.024655  -0.025001   0.000000
    26  H    0.000000   0.000000  -0.020319   0.382365  -0.002426   0.000000
    27  H    0.000000   0.000000  -0.020205   0.381864   0.001328   0.000000
    28  H    0.000000   0.000000  -0.019735   0.382724  -0.002201   0.000000
    29  H   -0.000001  -0.000009  -0.020409  -0.001539   0.382101   0.000000
    30  H    0.000003   0.000325  -0.019491   0.001343   0.383076   0.000000
    31  H    0.000000   0.000019  -0.020023  -0.003506   0.381549   0.000000
             13         14         15         16         17         18
     1  C    0.382383   0.382121  -0.024578  -0.000012  -0.000015  -0.000011
     2  C   -0.020251  -0.020809   0.382539   0.001108   0.001193   0.000336
     3  C   -0.000016   0.000012  -0.000144   0.380297  -0.000377   0.001253
     4  C    0.000013   0.000006  -0.002002   0.001129   0.382204   0.383681
     5  C    0.000000   0.000000  -0.000517  -0.023529  -0.020956  -0.021851
     6  C   -0.002212  -0.002202  -0.024792   0.000023  -0.023124  -0.022848
     7  C    0.001271  -0.002278  -0.023675  -0.024014   0.000024   0.000004
     8  O    0.000000   0.000000  -0.000007  -0.019986  -0.000019   0.000001
     9  C    0.000000   0.000000   0.000001  -0.002316  -0.002888  -0.000393
    10  C    0.000000   0.000000   0.000000   0.000013  -0.000063  -0.000598
    11  C    0.000000   0.000000   0.000000   0.000000  -0.000605   0.000036
    12  H   -0.021541  -0.021608  -0.002314  -0.000001   0.000000   0.000000
    13  H    0.629835  -0.021755  -0.002410   0.000000  -0.000001   0.000000
    14  H   -0.021755   0.630699   0.001916  -0.000001   0.000000   0.000000
    15  H   -0.002410   0.001916   0.652969  -0.000015   0.000000   0.000220
    16  H    0.000000  -0.000001  -0.000015   0.631499  -0.000019  -0.000029
    17  H   -0.000001   0.000000   0.000000  -0.000019   0.643399  -0.023976
    18  H    0.000000   0.000000   0.000220  -0.000029  -0.023976   0.641974
    19  H    0.000000  -0.000001  -0.000709  -0.001529   0.001908  -0.005202
    20  H    0.000003   0.000404   0.002005  -0.000004  -0.006674   0.001950
    21  H    0.000226  -0.000011  -0.002241   0.000002   0.000795  -0.006824
    22  H    0.000055   0.000367   0.001833   0.000440   0.000002   0.000002
    23  H   -0.000017   0.000003  -0.005321  -0.005859   0.000001   0.000002
    24  H    0.000001  -0.000001   0.000006   0.003630  -0.000548   0.000003
    25  H    0.000000   0.000000   0.000000   0.000300   0.000016  -0.000009
    26  H    0.000000   0.000000   0.000000   0.000000  -0.000005  -0.000746
    27  H    0.000000   0.000000   0.000000   0.000002   0.000016  -0.000018
    28  H    0.000000   0.000000   0.000000  -0.000001  -0.000007   0.000013
    29  H    0.000000   0.000000   0.000000   0.000004  -0.000456   0.000023
    30  H    0.000000   0.000000   0.000000  -0.000037   0.000028  -0.000001
    31  H    0.000000   0.000000   0.000000  -0.000003  -0.000016  -0.000002
             19         20         21         22         23         24
     1  C    0.000003  -0.002184  -0.002348  -0.004572  -0.000416  -0.000011
     2  C   -0.000554  -0.023326  -0.020659  -0.021668  -0.022775   0.000045
     3  C   -0.023529   0.000190   0.000023  -0.021549  -0.020663  -0.041362
     4  C   -0.024296  -0.023240  -0.021794  -0.000002   0.000020  -0.000109
     5  C    0.378606   0.000461   0.001071   0.001063   0.000555  -0.002250
     6  C   -0.000448   0.380776   0.383620  -0.000345   0.001296  -0.000744
     7  C   -0.002344  -0.002054   0.001215   0.380994   0.380555  -0.002784
     8  O    0.000599  -0.000419   0.000003  -0.002513   0.000678   0.258272
     9  C   -0.024266  -0.000011  -0.000010  -0.000012  -0.000008   0.000028
    10  C   -0.003024   0.000000   0.000000   0.000000   0.000000  -0.000001
    11  C    0.001152   0.000002   0.000000   0.000000   0.000000   0.000075
    12  H    0.000001   0.000005   0.000021  -0.000076   0.000213   0.000000
    13  H    0.000000   0.000003   0.000226   0.000055  -0.000017   0.000001
    14  H   -0.000001   0.000404  -0.000011   0.000367   0.000003  -0.000001
    15  H   -0.000709   0.002005  -0.002241   0.001833  -0.005321   0.000006
    16  H   -0.001529  -0.000004   0.000002   0.000440  -0.005859   0.003630
    17  H    0.001908  -0.006674   0.000795   0.000002   0.000001  -0.000548
    18  H   -0.005202   0.001950  -0.006824   0.000002   0.000002   0.000003
    19  H    0.659799  -0.000019  -0.000007   0.000030   0.000073  -0.000024
    20  H   -0.000019   0.655740  -0.024199   0.000275   0.000007  -0.000378
    21  H   -0.000007  -0.024199   0.637440  -0.000016  -0.000036   0.000011
    22  H    0.000030   0.000275  -0.000016   0.629829  -0.022405   0.000160
    23  H    0.000073   0.000007  -0.000036  -0.022405   0.642090  -0.000015
    24  H   -0.000024  -0.000378   0.000011   0.000160  -0.000015   0.608847
    25  H   -0.002660   0.000000   0.000000  -0.000001  -0.000001   0.000000
    26  H    0.000031   0.000000   0.000001   0.000000   0.000000   0.000000
    27  H    0.000216   0.000000   0.000000   0.000000   0.000000   0.000000
    28  H    0.000030   0.000000   0.000000   0.000000   0.000000   0.000000
    29  H    0.000000   0.000004   0.000000   0.000000   0.000000  -0.000057
    30  H    0.000004   0.000000   0.000000   0.000001   0.000000  -0.000168
    31  H   -0.000030   0.000000   0.000000   0.000000   0.000000  -0.000001
             25         26         27         28         29         30
     1  C    0.000000   0.000000   0.000000   0.000000   0.000000   0.000000
     2  C   -0.000001   0.000000   0.000000   0.000000   0.000000   0.000000
     3  C   -0.002236  -0.000003   0.000017  -0.000013   0.000017  -0.000163
     4  C    0.001090  -0.000595  -0.000069   0.000019  -0.000638   0.000036
     5  C   -0.023698  -0.001318  -0.002564   0.001166  -0.001812  -0.001012
     6  C   -0.000013   0.000004  -0.000002   0.000000  -0.000007  -0.000001
     7  C    0.000015   0.000000   0.000000   0.000000  -0.000001   0.000003
     8  O    0.000047   0.000000   0.000000   0.000000  -0.000009   0.000325
     9  C    0.381472  -0.020319  -0.020205  -0.019735  -0.020409  -0.019491
    10  C   -0.024655   0.382365   0.381864   0.382724  -0.001539   0.001343
    11  C   -0.025001  -0.002426   0.001328  -0.002201   0.382101   0.383076
    12  H    0.000000   0.000000   0.000000   0.000000   0.000000   0.000000
    13  H    0.000000   0.000000   0.000000   0.000000   0.000000   0.000000
    14  H    0.000000   0.000000   0.000000   0.000000   0.000000   0.000000
    15  H    0.000000   0.000000   0.000000   0.000000   0.000000   0.000000
    16  H    0.000300   0.000000   0.000002  -0.000001   0.000004  -0.000037
    17  H    0.000016  -0.000005   0.000016  -0.000007  -0.000456   0.000028
    18  H   -0.000009  -0.000746  -0.000018   0.000013   0.000023  -0.000001
    19  H   -0.002660   0.000031   0.000216   0.000030   0.000000   0.000004
    20  H    0.000000   0.000000   0.000000   0.000000   0.000004   0.000000
    21  H    0.000000   0.000001   0.000000   0.000000   0.000000   0.000000
    22  H   -0.000001   0.000000   0.000000   0.000000   0.000000   0.000001
    23  H   -0.000001   0.000000   0.000000   0.000000   0.000000   0.000000
    24  H    0.000000   0.000000   0.000000   0.000000  -0.000057  -0.000168
    25  H    0.653918   0.001927  -0.001876  -0.003028   0.001913  -0.003027
    26  H    0.001927   0.631228  -0.021698  -0.022008   0.000334   0.000013
    27  H   -0.001876  -0.021698   0.634176  -0.021830  -0.000003  -0.000037
    28  H   -0.003028  -0.022008  -0.021830   0.630606   0.000004   0.000026
    29  H    0.001913   0.000334  -0.000003   0.000004   0.633833  -0.021097
    30  H   -0.003027   0.000013  -0.000037   0.000026  -0.021097   0.612346
    31  H   -0.001795  -0.000028   0.000053   0.000036  -0.022156  -0.022271
             31
     1  C    0.000000
     2  C    0.000000
     3  C    0.000002
     4  C    0.000016
     5  C    0.001076
     6  C    0.000000
     7  C    0.000000
     8  O    0.000019
     9  C   -0.020023
    10  C   -0.003506
    11  C    0.381549
    12  H    0.000000
    13  H    0.000000
    14  H    0.000000
    15  H    0.000000
    16  H   -0.000003
    17  H   -0.000016
    18  H   -0.000002
    19  H   -0.000030
    20  H    0.000000
    21  H    0.000000
    22  H    0.000000
    23  H    0.000000
    24  H   -0.000001
    25  H   -0.001795
    26  H   -0.000028
    27  H    0.000053
    28  H    0.000036
    29  H   -0.022156
    30  H   -0.022271
    31  H    0.635498
 Mulliken atomic charges:
              1
     1  C   -0.171771
     2  C   -0.024801
     3  C    0.075020
     4  C   -0.110323
     5  C   -0.039719
     6  C   -0.104626
     7  C   -0.116908
     8  O   -0.315520
     9  C   -0.017634
    10  C   -0.173049
    11  C   -0.177937
    12  H    0.055293
    13  H    0.054415
    14  H    0.053140
    15  H    0.047234
    16  H    0.058907
    17  H    0.050166
    18  H    0.053011
    19  H    0.046189
    20  H    0.040688
    21  H    0.053716
    22  H    0.058109
    23  H    0.052018
    24  H    0.177372
    25  H    0.047300
    26  H    0.053245
    27  H    0.050631
    28  H    0.054198
    29  H    0.049949
    30  H    0.070105
    31  H    0.051582
 Sum of Mulliken atomic charges =   0.00000
 Mulliken charges with hydrogens summed into heavy atoms:
              1
     1  C   -0.008923
     2  C    0.022433
     3  C    0.133928
     4  C   -0.007146
     5  C    0.006470
     6  C   -0.010223
     7  C   -0.006781
     8  O   -0.138148
     9  C    0.029667
    10  C   -0.014975
    11  C   -0.006301
 Sum of Mulliken charges with hydrogens summed into heavy atoms =   0.00000
 Electronic spatial extent (au):  <R**2>=           2136.2566
 Charge=              0.0000 electrons
 Dipole moment (field-independent basis, Debye):
    X=             -0.6731    Y=             -1.3524    Z=             -0.1287  Tot=              1.5161
 Quadrupole moment (field-independent basis, Debye-Ang):
   XX=            -68.0624   YY=            -72.0732   ZZ=            -65.5285
   XY=             -0.7537   XZ=             -0.7604   YZ=             -0.7650
 Traceless Quadrupole moment (field-independent basis, Debye-Ang):
   XX=              0.4923   YY=             -3.5185   ZZ=              3.0262
   XY=             -0.7537   XZ=             -0.7604   YZ=             -0.7650
 Octapole moment (field-independent basis, Debye-Ang**2):
  XXX=              3.8557  YYY=             -2.1293  ZZZ=              4.7499  XYY=             -3.5701
  XXY=              5.4718  XXZ=              0.1507  XZZ=             -1.5188  YZZ=              5.8771
  YYZ=             -1.3259  XYZ=             -2.2232
 Hexadecapole moment (field-independent basis, Debye-Ang**3):
 XXXX=          -1928.2259 YYYY=           -549.6134 ZZZZ=           -285.7803 XXXY=              1.7767
 XXXZ=             -2.2192 YYYX=              4.7422 YYYZ=             -1.8117 ZZZX=              1.6704
 ZZZY=             10.2605 XXYY=           -408.6660 XXZZ=           -368.4486 YYZZ=           -133.1896
 XXYZ=              0.1480 YYXZ=             -3.7367 ZZXY=             -2.9567
 N-N= 6.958094043780D+02 E-N=-2.463534582323D+03  KE= 4.555607351145D+02
 ******************************Gaussian NBO Version 3.1******************************
             N A T U R A L   A T O M I C   O R B I T A L   A N D
          N A T U R A L   B O N D   O R B I T A L   A N A L Y S I S
 ******************************Gaussian NBO Version 3.1******************************
       /RESON  / : Allow strongly delocalized NBO set
       /NLMO   / : Form Natural Localized Molecular Orbitals
       /NMR /    : Analyze NMR Sheilding Tensor 

 Analyzing the SCF density

 Job title: comment                                                         

 Storage needed:     19864 in NPA,     23691 in NBO,     45933 in NLMO (  33549317 available)


 NATURAL POPULATIONS:  Natural atomic orbital occupancies 
                                                          
   NAO  Atom  No  lang   Type(AO)    Occupancy      Energy
 ----------------------------------------------------------
     1    C    1  S      Cor( 1S)     1.99997     -10.96852
     2    C    1  S      Val( 2S)     1.07984      -0.18498
     3    C    1  px     Val( 2p)     0.99008       0.08529
     4    C    1  py     Val( 2p)     1.02920       0.08028
     5    C    1  pz     Val( 2p)     1.02790       0.08086

     6    C    2  S      Cor( 1S)     1.99997     -10.99243
     7    C    2  S      Val( 2S)     1.07995      -0.19626
     8    C    2  px     Val( 2p)     0.95607       0.10545
     9    C    2  py     Val( 2p)     0.97297       0.10182
    10    C    2  pz     Val( 2p)     0.97772       0.10123

    11    C    3  S      Cor( 1S)     1.99989     -11.03430
    12    C    3  S      Val( 2S)     1.08996      -0.21735
    13    C    3  px     Val( 2p)     0.95936       0.09217
    14    C    3  py     Val( 2p)     0.92556       0.10551
    15    C    3  pz     Val( 2p)     0.88360       0.10542

    16    C    4  S      Cor( 1S)     1.99995     -10.97806
    17    C    4  S      Val( 2S)     1.08606      -0.19506
    18    C    4  px     Val( 2p)     0.97448       0.09483
    19    C    4  py     Val( 2p)     1.01357       0.08316
    20    C    4  pz     Val( 2p)     0.99849       0.09382

    21    C    5  S      Cor( 1S)     1.99995     -10.98903
    22    C    5  S      Val( 2S)     1.10221      -0.21278
    23    C    5  px     Val( 2p)     0.96332       0.10294
    24    C    5  py     Val( 2p)     0.97184       0.09962
    25    C    5  pz     Val( 2p)     0.98218       0.09901

    26    C    6  S      Cor( 1S)     1.99996     -10.97998
    27    C    6  S      Val( 2S)     1.08444      -0.19501
    28    C    6  px     Val( 2p)     0.97446       0.09272
    29    C    6  py     Val( 2p)     1.01775       0.08374
    30    C    6  pz     Val( 2p)     0.98990       0.09136

    31    C    7  S      Cor( 1S)     1.99996     -10.97510
    32    C    7  S      Val( 2S)     1.09768      -0.20240
    33    C    7  px     Val( 2p)     0.98444       0.08933
    34    C    7  py     Val( 2p)     0.98829       0.09334
    35    C    7  pz     Val( 2p)     1.02237       0.08236

    36    O    8  S      Cor( 1S)     1.99999     -20.13803
    37    O    8  S      Val( 2S)     1.74702      -0.99439
    38    O    8  px     Val( 2p)     1.86490      -0.32627
    39    O    8  py     Val( 2p)     1.58791      -0.22275
    40    O    8  pz     Val( 2p)     1.13673      -0.01867

    41    C    9  S      Cor( 1S)     1.99996     -10.99005
    42    C    9  S      Val( 2S)     1.08439      -0.19407
    43    C    9  px     Val( 2p)     0.94673       0.11581
    44    C    9  py     Val( 2p)     0.96068       0.11188
    45    C    9  pz     Val( 2p)     0.98434       0.10536

    46    C   10  S      Cor( 1S)     1.99997     -10.96301
    47    C   10  S      Val( 2S)     1.08158      -0.18155
    48    C   10  px     Val( 2p)     1.02115       0.08514
    49    C   10  py     Val( 2p)     0.99984       0.08869
    50    C   10  pz     Val( 2p)     1.02616       0.08692

    51    C   11  S      Cor( 1S)     1.99997     -10.95580
    52    C   11  S      Val( 2S)     1.07966      -0.17288
    53    C   11  px     Val( 2p)     1.02171       0.09149
    54    C   11  py     Val( 2p)     1.03011       0.08998
    55    C   11  pz     Val( 2p)     1.00364       0.09793

    56    H   12  S      Val( 1S)     0.96209       0.07207

    57    H   13  S      Val( 1S)     0.96293       0.07183

    58    H   14  S      Val( 1S)     0.96418       0.07077

    59    H   15  S      Val( 1S)     0.97692       0.06189

    60    H   16  S      Val( 1S)     0.97649       0.05825

    61    H   17  S      Val( 1S)     0.97085       0.06841

    62    H   18  S      Val( 1S)     0.96778       0.06997

    63    H   19  S      Val( 1S)     0.97819       0.06063

    64    H   20  S      Val( 1S)     0.97936       0.05859

    65    H   21  S      Val( 1S)     0.96691       0.06726

    66    H   22  S      Val( 1S)     0.96275       0.07098

    67    H   23  S      Val( 1S)     0.96827       0.06758

    68    H   24  S      Val( 1S)     0.81066       0.08069

    69    H   25  S      Val( 1S)     0.97803       0.06771

    70    H   26  S      Val( 1S)     0.96431       0.07592

    71    H   27  S      Val( 1S)     0.96666       0.07403

    72    H   28  S      Val( 1S)     0.96312       0.07619

    73    H   29  S      Val( 1S)     0.96683       0.08130

    74    H   30  S      Val( 1S)     0.94891       0.09903

    75    H   31  S      Val( 1S)     0.96499       0.07994


 Summary of Natural Population Analysis:                  
                                                          
                                       Natural Population 
                Natural  -----------------------------------------------
    Atom  No    Charge         Core      Valence    Rydberg      Total
 -----------------------------------------------------------------------
      C    1   -0.12699      1.99997     4.12702    0.00000     6.12699
      C    2    0.01332      1.99997     3.98671    0.00000     5.98668
      C    3    0.14162      1.99989     3.85849    0.00000     5.85838
      C    4   -0.07255      1.99995     4.07259    0.00000     6.07255
      C    5   -0.01950      1.99995     4.01955    0.00000     6.01950
      C    6   -0.06651      1.99996     4.06655    0.00000     6.06651
      C    7   -0.09274      1.99996     4.09279    0.00000     6.09274
      O    8   -0.33654      1.99999     6.33655    0.00000     8.33654
      C    9    0.02389      1.99996     3.97615    0.00000     5.97611
      C   10   -0.12870      1.99997     4.12873    0.00000     6.12870
      C   11   -0.13508      1.99997     4.13511    0.00000     6.13508
      H   12    0.03791      0.00000     0.96209    0.00000     0.96209
      H   13    0.03707      0.00000     0.96293    0.00000     0.96293
      H   14    0.03582      0.00000     0.96418    0.00000     0.96418
      H   15    0.02308      0.00000     0.97692    0.00000     0.97692
      H   16    0.02351      0.00000     0.97649    0.00000     0.97649
      H   17    0.02915      0.00000     0.97085    0.00000     0.97085
      H   18    0.03222      0.00000     0.96778    0.00000     0.96778
      H   19    0.02181      0.00000     0.97819    0.00000     0.97819
      H   20    0.02064      0.00000     0.97936    0.00000     0.97936
      H   21    0.03309      0.00000     0.96691    0.00000     0.96691
      H   22    0.03725      0.00000     0.96275    0.00000     0.96275
      H   23    0.03173      0.00000     0.96827    0.00000     0.96827
      H   24    0.18934      0.00000     0.81066    0.00000     0.81066
      H   25    0.02197      0.00000     0.97803    0.00000     0.97803
      H   26    0.03569      0.00000     0.96431    0.00000     0.96431
      H   27    0.03334      0.00000     0.96666    0.00000     0.96666
      H   28    0.03688      0.00000     0.96312    0.00000     0.96312
      H   29    0.03317      0.00000     0.96683    0.00000     0.96683
      H   30    0.05109      0.00000     0.94891    0.00000     0.94891
      H   31    0.03501      0.00000     0.96499    0.00000     0.96499
 =======================================================================
   * Total *    0.00000     21.99955    66.00045    0.00000    88.00000

                                 Natural Population      
 --------------------------------------------------------
   Core                      21.99955 ( 99.9979% of  22)
   Valence                   66.00045 (100.0007% of  66)
   Natural Minimal Basis     88.00000 (100.0000% of  88)
   Natural Rydberg Basis      0.00000 (  0.0000% of  88)
 --------------------------------------------------------

    Atom  No          Natural Electron Configuration
 ----------------------------------------------------------------------------
      C    1      [core]2S( 1.08)2p( 3.05)
      C    2      [core]2S( 1.08)2p( 2.91)
      C    3      [core]2S( 1.09)2p( 2.77)
      C    4      [core]2S( 1.09)2p( 2.99)
      C    5      [core]2S( 1.10)2p( 2.92)
      C    6      [core]2S( 1.08)2p( 2.98)
      C    7      [core]2S( 1.10)2p( 3.00)
      O    8      [core]2S( 1.75)2p( 4.59)
      C    9      [core]2S( 1.08)2p( 2.89)
      C   10      [core]2S( 1.08)2p( 3.05)
      C   11      [core]2S( 1.08)2p( 3.06)
      H   12            1S( 0.96)
      H   13            1S( 0.96)
      H   14            1S( 0.96)
      H   15            1S( 0.98)
      H   16            1S( 0.98)
      H   17            1S( 0.97)
      H   18            1S( 0.97)
      H   19            1S( 0.98)
      H   20            1S( 0.98)
      H   21            1S( 0.97)
      H   22            1S( 0.96)
      H   23            1S( 0.97)
      H   24            1S( 0.81)
      H   25            1S( 0.98)
      H   26            1S( 0.96)
      H   27            1S( 0.97)
      H   28            1S( 0.96)
      H   29            1S( 0.97)
      H   30            1S( 0.95)
      H   31            1S( 0.96)


 NATURAL BOND ORBITAL ANALYSIS:

                       Occupancies       Lewis Structure    Low   High
           Occ.    -------------------  -----------------   occ   occ
  Cycle   Thresh.   Lewis   Non-Lewis     CR  BD  3C  LP    (L)   (NL)   Dev
 =============================================================================
   1(1)    1.90    87.63823   0.36177     11  31   0   2     0      0    0.02
 -----------------------------------------------------------------------------

 Structure accepted: No low occupancy Lewis orbitals

 --------------------------------------------------------
   Core                     21.99954 ( 99.998% of  22)
   Valence Lewis            65.63869 ( 99.453% of  66)
  ==================       ============================
   Total Lewis              87.63823 ( 99.589% of  88)
  -----------------------------------------------------
   Valence non-Lewis         0.36177 (  0.411% of  88)
   Rydberg non-Lewis         0.00000 (  0.000% of  88)
  ==================       ============================
   Total non-Lewis           0.36177 (  0.411% of  88)
 --------------------------------------------------------


       (Occupancy)   Bond orbital/ Coefficients/ Hybrids
 ---------------------------------------------------------------------------------
     1. (1.98894) BD ( 1) C   1 - C   2  
                ( 50.79%)   0.7126* C   1 s( 25.71%)p 2.89( 74.29%)
                                            0.0001  0.5071  0.8525 -0.0061 -0.1269
                ( 49.21%)   0.7015* C   2 s( 25.26%)p 2.96( 74.74%)
                                            0.0000  0.5026 -0.8512  0.0272  0.1486
     2. (1.99499) BD ( 1) C   1 - H  12  
                ( 51.91%)   0.7205* C   1 s( 24.77%)p 3.04( 75.23%)
                                            0.0000  0.4977 -0.4021  0.2557 -0.7248
                ( 48.09%)   0.6935* H  12 s(100.00%)
                                            1.0000
     3. (1.99495) BD ( 1) C   1 - H  13  
                ( 51.87%)   0.7202* C   1 s( 24.72%)p 3.05( 75.28%)
                                            0.0000  0.4972 -0.2702 -0.7973  0.2100
                ( 48.13%)   0.6938* H  13 s(100.00%)
                                            1.0000
     4. (1.99529) BD ( 1) C   1 - H  14  
                ( 51.83%)   0.7199* C   1 s( 24.80%)p 3.03( 75.20%)
                                            0.0000  0.4980 -0.1965  0.5467  0.6438
                ( 48.17%)   0.6940* H  14 s(100.00%)
                                            1.0000
     5. (1.98621) BD ( 1) C   2 - C   6  
                ( 49.41%)   0.7030* C   2 s( 25.10%)p 2.98( 74.90%)
                                            0.0000  0.5010  0.4130 -0.2522  0.7175
                ( 50.59%)   0.7112* C   6 s( 25.51%)p 2.92( 74.49%)
                                            0.0001  0.5051 -0.4084  0.2635 -0.7132
     6. (1.98523) BD ( 1) C   2 - C   7  
                ( 49.65%)   0.7046* C   2 s( 25.09%)p 2.99( 74.91%)
                                            0.0000  0.5009  0.2798  0.7846 -0.2350
                ( 50.35%)   0.7096* C   7 s( 25.13%)p 2.98( 74.87%)
                                            0.0001  0.5013 -0.2527 -0.7783  0.2811
     7. (1.98514) BD ( 1) C   2 - H  15  
                ( 51.08%)   0.7147* C   2 s( 24.55%)p 3.07( 75.45%)
                                            0.0000  0.4955  0.1630 -0.5657 -0.6387
                ( 48.92%)   0.6994* H  15 s(100.00%)
                                            1.0000
     8. (1.98284) BD ( 1) C   3 - C   5  
                ( 50.02%)   0.7072* C   3 s( 25.95%)p 2.85( 74.05%)
                                            0.0001  0.5094  0.4296 -0.7414  0.0788
                ( 49.98%)   0.7070* C   5 s( 25.11%)p 2.98( 74.89%)
                                            0.0000  0.5011 -0.4042  0.7647 -0.0263
     9. (1.98658) BD ( 1) C   3 - C   7  
                ( 49.32%)   0.7023* C   3 s( 25.50%)p 2.92( 74.50%)
                                            0.0000  0.5049 -0.8431 -0.1527 -0.1047
                ( 50.68%)   0.7119* C   7 s( 25.38%)p 2.94( 74.62%)
                                            0.0000  0.5038  0.8491  0.0947  0.1273
    10. (1.98870) BD ( 1) C   3 - O   8  
                ( 41.00%)   0.6403* C   3 s( 22.13%)p 3.52( 77.87%)
                                            0.0000  0.4704  0.1055  0.4633  0.7436
                ( 59.00%)   0.7681* O   8 s( 16.62%)p 5.02( 83.38%)
                                            0.0000  0.4077 -0.1410 -0.5720 -0.6976
    11. (1.98718) BD ( 1) C   3 - H  16  
                ( 51.29%)   0.7162* C   3 s( 26.43%)p 2.78( 73.57%)
                                           -0.0001  0.5141  0.3058  0.4607 -0.6557
                ( 48.71%)   0.6979* H  16 s(100.00%)
                                            1.0000
    12. (1.98492) BD ( 1) C   4 - C   5  
                ( 50.59%)   0.7113* C   4 s( 25.58%)p 2.91( 74.42%)
                                            0.0001  0.5057  0.2733  0.4971 -0.6499
                ( 49.41%)   0.7029* C   5 s( 25.35%)p 2.94( 74.65%)
                                            0.0000  0.5035 -0.2690 -0.4485  0.6877
    13. (1.98862) BD ( 1) C   4 - C   6  
                ( 49.95%)   0.7068* C   4 s( 25.23%)p 2.96( 74.77%)
                                            0.0000  0.5023 -0.8560  0.0803  0.0923
                ( 50.05%)   0.7075* C   6 s( 25.24%)p 2.96( 74.76%)
                                            0.0000  0.5024  0.8508 -0.0439 -0.1476
    14. (1.99038) BD ( 1) C   4 - H  17  
                ( 51.47%)   0.7175* C   4 s( 24.76%)p 3.04( 75.24%)
                                            0.0000  0.4976  0.3936  0.2386  0.7352
                ( 48.53%)   0.6966* H  17 s(100.00%)
                                            1.0000
    15. (1.99125) BD ( 1) C   4 - H  18  
                ( 51.60%)   0.7183* C   4 s( 24.44%)p 3.09( 75.56%)
                                            0.0000  0.4943  0.1940 -0.8303 -0.1689
                ( 48.40%)   0.6957* H  18 s(100.00%)
                                            1.0000
    16. (1.97873) BD ( 1) C   5 - C   9  
                ( 50.37%)   0.7097* C   5 s( 25.89%)p 2.86( 74.11%)
                                            0.0000  0.5089  0.8519  0.1181  0.0378
                ( 49.63%)   0.7045* C   9 s( 25.43%)p 2.93( 74.57%)
                                            0.0001  0.5043 -0.8564 -0.0868  0.0696
    17. (1.98186) BD ( 1) C   5 - H  19  
                ( 50.92%)   0.7136* C   5 s( 23.64%)p 3.23( 76.36%)
                                            0.0000  0.4863 -0.1963 -0.4473 -0.7245
                ( 49.08%)   0.7006* H  19 s(100.00%)
                                            1.0000
    18. (1.99019) BD ( 1) C   6 - H  20  
                ( 51.04%)   0.7144* C   6 s( 24.30%)p 3.11( 75.70%)
                                            0.0000  0.4930 -0.1502  0.5654  0.6440
                ( 48.96%)   0.6997* H  20 s(100.00%)
                                            1.0000
    19. (1.99045) BD ( 1) C   6 - H  21  
                ( 51.64%)   0.7186* C   6 s( 24.95%)p 3.01( 75.05%)
                                            0.0000  0.4995 -0.2945 -0.7804  0.2340
                ( 48.36%)   0.6954* H  21 s(100.00%)
                                            1.0000
    20. (1.98880) BD ( 1) C   7 - H  22  
                ( 51.84%)   0.7200* C   7 s( 25.22%)p 2.96( 74.78%)
                                            0.0000  0.5022 -0.4306  0.6172  0.4259
                ( 48.16%)   0.6940* H  22 s(100.00%)
                                            1.0000
    21. (1.99052) BD ( 1) C   7 - H  23  
                ( 51.53%)   0.7178* C   7 s( 24.27%)p 3.12( 75.73%)
                                            0.0000  0.4926 -0.1722  0.0660 -0.8505
                ( 48.47%)   0.6962* H  23 s(100.00%)
                                            1.0000
    22. (1.98922) BD ( 1) O   8 - H  24  
                ( 59.55%)   0.7717* O   8 s( 17.06%)p 4.86( 82.94%)
                                            0.0000 -0.4131  0.3581  0.4659 -0.6958
                ( 40.45%)   0.6360* H  24 s(100.00%)
                                           -1.0000
    23. (1.98911) BD ( 1) C   9 - C  10  
                ( 48.94%)   0.6995* C   9 s( 24.80%)p 3.03( 75.20%)
                                            0.0000  0.4980  0.3698 -0.7836 -0.0348
                ( 51.06%)   0.7146* C  10 s( 25.74%)p 2.89( 74.26%)
                                            0.0001  0.5073 -0.3987  0.7616  0.0602
    24. (1.99022) BD ( 1) C   9 - C  11  
                ( 49.34%)   0.7024* C   9 s( 25.56%)p 2.91( 74.44%)
                                            0.0000  0.5056  0.3085  0.4368  0.6771
                ( 50.66%)   0.7118* C  11 s( 25.88%)p 2.86( 74.12%)
                                            0.0001  0.5087 -0.3569 -0.4473 -0.6432
    25. (1.98406) BD ( 1) C   9 - H  25  
                ( 50.98%)   0.7140* C   9 s( 24.21%)p 3.13( 75.79%)
                                            0.0000  0.4921  0.1863  0.4332 -0.7318
                ( 49.02%)   0.7002* H  25 s(100.00%)
                                            1.0000
    26. (1.99558) BD ( 1) C  10 - H  26  
                ( 51.84%)   0.7200* C  10 s( 24.87%)p 3.02( 75.13%)
                                            0.0000  0.4987 -0.1005 -0.4432  0.7381
                ( 48.16%)   0.6940* H  26 s(100.00%)
                                            1.0000
    27. (1.99520) BD ( 1) C  10 - H  27  
                ( 51.69%)   0.7190* C  10 s( 24.70%)p 3.05( 75.30%)
                                            0.0000  0.4970 -0.3384 -0.4564 -0.6559
                ( 48.31%)   0.6950* H  27 s(100.00%)
                                            1.0000
    28. (1.99471) BD ( 1) C  10 - H  28  
                ( 51.84%)   0.7200* C  10 s( 24.69%)p 3.05( 75.31%)
                                            0.0000  0.4969  0.8464  0.1237 -0.1463
                ( 48.16%)   0.6940* H  28 s(100.00%)
                                            1.0000
    29. (1.99462) BD ( 1) C  11 - H  29  
                ( 51.70%)   0.7190* C  11 s( 24.94%)p 3.01( 75.06%)
                                            0.0000  0.4994 -0.2194 -0.3514  0.7610
                ( 48.30%)   0.6950* H  29 s(100.00%)
                                            1.0000
    30. (1.99528) BD ( 1) C  11 - H  30  
                ( 52.61%)   0.7253* C  11 s( 24.85%)p 3.02( 75.15%)
                                            0.0000  0.4985 -0.2730  0.8223 -0.0261
                ( 47.39%)   0.6884* H  30 s(100.00%)
                                            1.0000
    31. (1.99399) BD ( 1) C  11 - H  31  
                ( 51.74%)   0.7193* C  11 s( 24.33%)p 3.11( 75.67%)
                                            0.0000  0.4933  0.8660 -0.0141 -0.0806
                ( 48.26%)   0.6947* H  31 s(100.00%)
                                            1.0000
    32. (1.99997) CR ( 1) C   1           s(100.00%)
                                            1.0000  0.0000 -0.0001  0.0000  0.0000
    33. (1.99997) CR ( 1) C   2           s(100.00%)
                                            1.0000  0.0000  0.0000  0.0000  0.0000
    34. (1.99989) CR ( 1) C   3           s(100.00%)
                                            1.0000  0.0000  0.0000  0.0001  0.0000
    35. (1.99995) CR ( 1) C   4           s(100.00%)
                                            1.0000 -0.0001  0.0000 -0.0001  0.0000
    36. (1.99995) CR ( 1) C   5           s(100.00%)
                                            1.0000  0.0000  0.0000  0.0000  0.0000
    37. (1.99996) CR ( 1) C   6           s(100.00%)
                                            1.0000 -0.0001  0.0000 -0.0001  0.0001
    38. (1.99996) CR ( 1) C   7           s(100.00%)
                                            1.0000  0.0000  0.0000  0.0001  0.0000
    39. (1.99999) CR ( 1) O   8           s(100.00%)
                                            1.0000  0.0000  0.0000  0.0000  0.0000
    40. (1.99996) CR ( 1) C   9           s(100.00%)
                                            1.0000  0.0000  0.0001  0.0000  0.0000
    41. (1.99997) CR ( 1) C  10           s(100.00%)
                                            1.0000  0.0000  0.0001 -0.0001  0.0000
    42. (1.99997) CR ( 1) C  11           s(100.00%)
                                            1.0000  0.0000  0.0001  0.0000  0.0000
    43. (1.99224) LP ( 1) O   8           s( 66.31%)p 0.51( 33.69%)
                                            0.0000  0.8143  0.2526  0.5226 -0.0036
    44. (1.97271) LP ( 2) O   8           s(  0.00%)p 1.00(100.00%)
                                            0.0000  0.0003 -0.8877  0.4275 -0.1709
    45. (0.00966) BD*( 1) C   1 - C   2  
                ( 49.21%)   0.7015* C   1 s( 25.71%)p 2.89( 74.29%)
                                           -0.0001 -0.5071 -0.8525  0.0061  0.1269
                ( 50.79%)  -0.7126* C   2 s( 25.26%)p 2.96( 74.74%)
                                            0.0000 -0.5026  0.8512 -0.0272 -0.1486
    46. (0.00502) BD*( 1) C   1 - H  12  
                ( 48.09%)   0.6935* C   1 s( 24.77%)p 3.04( 75.23%)
                                            0.0000 -0.4977  0.4021 -0.2557  0.7248
                ( 51.91%)  -0.7205* H  12 s(100.00%)
                                           -1.0000
    47. (0.00516) BD*( 1) C   1 - H  13  
                ( 48.13%)   0.6938* C   1 s( 24.72%)p 3.05( 75.28%)
                                            0.0000 -0.4972  0.2702  0.7973 -0.2100
                ( 51.87%)  -0.7202* H  13 s(100.00%)
                                           -1.0000
    48. (0.00595) BD*( 1) C   1 - H  14  
                ( 48.17%)   0.6940* C   1 s( 24.80%)p 3.03( 75.20%)
                                            0.0000 -0.4980  0.1965 -0.5467 -0.6438
                ( 51.83%)  -0.7199* H  14 s(100.00%)
                                           -1.0000
    49. (0.01594) BD*( 1) C   2 - C   6  
                ( 50.59%)   0.7112* C   2 s( 25.10%)p 2.98( 74.90%)
                                            0.0000  0.5010  0.4130 -0.2522  0.7175
                ( 49.41%)  -0.7030* C   6 s( 25.51%)p 2.92( 74.49%)
                                            0.0001  0.5051 -0.4084  0.2635 -0.7132
    50. (0.01636) BD*( 1) C   2 - C   7  
                ( 50.35%)   0.7096* C   2 s( 25.09%)p 2.99( 74.91%)
                                            0.0000  0.5009  0.2798  0.7846 -0.2350
                ( 49.65%)  -0.7046* C   7 s( 25.13%)p 2.98( 74.87%)
                                            0.0001  0.5013 -0.2527 -0.7783  0.2811
    51. (0.01138) BD*( 1) C   2 - H  15  
                ( 48.92%)   0.6994* C   2 s( 24.55%)p 3.07( 75.45%)
                                            0.0000 -0.4955 -0.1630  0.5657  0.6387
                ( 51.08%)  -0.7147* H  15 s(100.00%)
                                           -1.0000
    52. (0.03328) BD*( 1) C   3 - C   5  
                ( 49.98%)   0.7070* C   3 s( 25.95%)p 2.85( 74.05%)
                                           -0.0001 -0.5094 -0.4296  0.7414 -0.0788
                ( 50.02%)  -0.7072* C   5 s( 25.11%)p 2.98( 74.89%)
                                            0.0000 -0.5011  0.4042 -0.7647  0.0263
    53. (0.02786) BD*( 1) C   3 - C   7  
                ( 50.68%)   0.7119* C   3 s( 25.50%)p 2.92( 74.50%)
                                            0.0000  0.5049 -0.8431 -0.1527 -0.1047
                ( 49.32%)  -0.7023* C   7 s( 25.38%)p 2.94( 74.62%)
                                            0.0000  0.5038  0.8491  0.0947  0.1273
    54. (0.02313) BD*( 1) C   3 - O   8  
                ( 59.00%)   0.7681* C   3 s( 22.13%)p 3.52( 77.87%)
                                            0.0000  0.4704  0.1055  0.4633  0.7436
                ( 41.00%)  -0.6403* O   8 s( 16.62%)p 5.02( 83.38%)
                                            0.0000  0.4077 -0.1410 -0.5720 -0.6976
    55. (0.01662) BD*( 1) C   3 - H  16  
                ( 48.71%)   0.6979* C   3 s( 26.43%)p 2.78( 73.57%)
                                            0.0001 -0.5141 -0.3058 -0.4607  0.6557
                ( 51.29%)  -0.7162* H  16 s(100.00%)
                                           -1.0000
    56. (0.01730) BD*( 1) C   4 - C   5  
                ( 49.41%)   0.7029* C   4 s( 25.58%)p 2.91( 74.42%)
                                           -0.0001 -0.5057 -0.2733 -0.4971  0.6499
                ( 50.59%)  -0.7113* C   5 s( 25.35%)p 2.94( 74.65%)
                                            0.0000 -0.5035  0.2690  0.4485 -0.6877
    57. (0.01245) BD*( 1) C   4 - C   6  
                ( 50.05%)   0.7075* C   4 s( 25.23%)p 2.96( 74.77%)
                                            0.0000  0.5023 -0.8560  0.0803  0.0923
                ( 49.95%)  -0.7068* C   6 s( 25.24%)p 2.96( 74.76%)
                                            0.0000  0.5024  0.8508 -0.0439 -0.1476
    58. (0.00973) BD*( 1) C   4 - H  17  
                ( 48.53%)   0.6966* C   4 s( 24.76%)p 3.04( 75.24%)
                                            0.0000 -0.4976 -0.3936 -0.2386 -0.7352
                ( 51.47%)  -0.7175* H  17 s(100.00%)
                                           -1.0000
    59. (0.00762) BD*( 1) C   4 - H  18  
                ( 48.40%)   0.6957* C   4 s( 24.44%)p 3.09( 75.56%)
                                            0.0000 -0.4943 -0.1940  0.8303  0.1689
                ( 51.60%)  -0.7183* H  18 s(100.00%)
                                           -1.0000
    60. (0.02235) BD*( 1) C   5 - C   9  
                ( 49.63%)   0.7045* C   5 s( 25.89%)p 2.86( 74.11%)
                                            0.0000 -0.5089 -0.8519 -0.1181 -0.0378
                ( 50.37%)  -0.7097* C   9 s( 25.43%)p 2.93( 74.57%)
                                           -0.0001 -0.5043  0.8564  0.0868 -0.0696
    61. (0.01081) BD*( 1) C   5 - H  19  
                ( 49.08%)   0.7006* C   5 s( 23.64%)p 3.23( 76.36%)
                                            0.0000 -0.4863  0.1963  0.4473  0.7245
                ( 50.92%)  -0.7136* H  19 s(100.00%)
                                           -1.0000
    62. (0.00985) BD*( 1) C   6 - H  20  
                ( 48.96%)   0.6997* C   6 s( 24.30%)p 3.11( 75.70%)
                                            0.0000 -0.4930  0.1502 -0.5654 -0.6440
                ( 51.04%)  -0.7144* H  20 s(100.00%)
                                           -1.0000
    63. (0.00820) BD*( 1) C   6 - H  21  
                ( 48.36%)   0.6954* C   6 s( 24.95%)p 3.01( 75.05%)
                                            0.0000 -0.4995  0.2945  0.7804 -0.2340
                ( 51.64%)  -0.7186* H  21 s(100.00%)
                                           -1.0000
    64. (0.00940) BD*( 1) C   7 - H  22  
                ( 48.16%)   0.6940* C   7 s( 25.22%)p 2.96( 74.78%)
                                            0.0000 -0.5022  0.4306 -0.6172 -0.4259
                ( 51.84%)  -0.7200* H  22 s(100.00%)
                                           -1.0000
    65. (0.00675) BD*( 1) C   7 - H  23  
                ( 48.47%)   0.6962* C   7 s( 24.27%)p 3.12( 75.73%)
                                            0.0000 -0.4926  0.1722 -0.0660  0.8505
                ( 51.53%)  -0.7178* H  23 s(100.00%)
                                           -1.0000
    66. (0.01015) BD*( 1) O   8 - H  24  
                ( 40.45%)   0.6360* O   8 s( 17.06%)p 4.86( 82.94%)
                                            0.0000  0.4131 -0.3581 -0.4659  0.6958
                ( 59.55%)  -0.7717* H  24 s(100.00%)
                                            1.0000
    67. (0.01042) BD*( 1) C   9 - C  10  
                ( 51.06%)   0.7146* C   9 s( 24.80%)p 3.03( 75.20%)
                                            0.0000  0.4980  0.3698 -0.7836 -0.0348
                ( 48.94%)  -0.6995* C  10 s( 25.74%)p 2.89( 74.26%)
                                            0.0001  0.5073 -0.3987  0.7616  0.0602
    68. (0.01099) BD*( 1) C   9 - C  11  
                ( 50.66%)   0.7118* C   9 s( 25.56%)p 2.91( 74.44%)
                                            0.0000  0.5056  0.3085  0.4368  0.6771
                ( 49.34%)  -0.7024* C  11 s( 25.88%)p 2.86( 74.12%)
                                            0.0001  0.5087 -0.3569 -0.4473 -0.6432
    69. (0.01059) BD*( 1) C   9 - H  25  
                ( 49.02%)   0.7002* C   9 s( 24.21%)p 3.13( 75.79%)
                                            0.0000 -0.4921 -0.1863 -0.4332  0.7318
                ( 50.98%)  -0.7140* H  25 s(100.00%)
                                           -1.0000
    70. (0.00619) BD*( 1) C  10 - H  26  
                ( 48.16%)   0.6940* C  10 s( 24.87%)p 3.02( 75.13%)
                                            0.0000 -0.4987  0.1005  0.4432 -0.7381
                ( 51.84%)  -0.7200* H  26 s(100.00%)
                                           -1.0000
    71. (0.00549) BD*( 1) C  10 - H  27  
                ( 48.31%)   0.6950* C  10 s( 24.70%)p 3.05( 75.30%)
                                            0.0000 -0.4970  0.3384  0.4564  0.6559
                ( 51.69%)  -0.7190* H  27 s(100.00%)
                                           -1.0000
    72. (0.00485) BD*( 1) C  10 - H  28  
                ( 48.16%)   0.6940* C  10 s( 24.69%)p 3.05( 75.31%)
[...]
   22      27.1376       11.7753      15.3624        12.6166      14.5211
   30      -0.4741       -1.4406       0.9665        -1.0649       0.5908
   39     271.1724       -0.0057     271.1781        -0.0021     271.1745
   43      33.8683        3.3879      30.4803        -3.5772      37.4454
   44      -0.0691      -38.8206      38.7515       -39.9437      39.8746
 Sum      351.0693      -21.6836     372.7529       -27.2049     378.2742

 Contributions to Isotropic shielding for atom    9 (   212.8312 ppm):
                         Standard Origin              Atomic Origin
 NLMO      Total    Paramagnetic  Diamagnetic   Paramagnetic  Diamagnetic
   10       0.0447       -0.2576       0.3024        -1.0573       1.1020
   11      -0.1458       -0.4764       0.3306        -1.0461       0.9003
   16       5.5857       -9.7174      15.3031        -2.0366       7.6223
   23      -1.7945       -4.7193       2.9248        -9.2289       7.4344
   24      -1.1661       -6.3235       5.1574        -8.8663       7.7002
   25       5.5366       -1.4407       6.9773        -5.3136      10.8502
   26       1.0070       -0.3524       1.3594        -0.0218       1.0288
   27       0.7025       -0.6505       1.3531        -0.3267       1.0292
   28       0.6566       -0.2740       0.9306        -0.3659       1.0225
   29       0.9415       -0.3141       1.2556        -0.0958       1.0373
   30       0.5734       -0.5909       1.1643        -0.4640       1.0374
   31       0.6327       -0.1554       0.7881        -0.3782       1.0109
   40     199.9246       -0.0020     199.9266         0.0025     199.9220
 Sum      212.4989      -25.2744     237.7733       -29.1986     241.6976

 Contributions to Isotropic shielding for atom   10 (   220.7430 ppm):
                         Standard Origin              Atomic Origin
 NLMO      Total    Paramagnetic  Diamagnetic   Paramagnetic  Diamagnetic
   23       4.4866      -11.3778      15.8643        -3.5369       8.0235
   24      -0.5343        0.0652      -0.5995        -1.2632       0.7289
   25       0.3185        0.1463       0.1722        -0.7005       1.0190
   26       6.2830       -4.4073      10.6904        -4.8591      11.1421
   27       5.5129       -4.6516      10.1645        -5.5499      11.0628
   28       4.4981        2.6704       1.8277        -6.6173      11.1154
   31      -0.1955       -0.7046       0.5091        -1.1498       0.9543
   41     200.0748       -0.0036     200.0783         0.0022     200.0726
 Sum      220.4440      -18.2630     238.7070       -23.6745     244.1185

 Contributions to Isotropic shielding for atom   11 (   224.3837 ppm):
                         Standard Origin              Atomic Origin
 NLMO      Total    Paramagnetic  Diamagnetic   Paramagnetic  Diamagnetic
   10       0.0208       -0.2095       0.2303        -1.0727       1.0936
   23      -0.4426        0.1128      -0.5554        -1.1257       0.6831
   24       4.5714       -9.1621      13.7334        -3.2537       7.8250
   25       0.3187       -0.0461       0.3649        -0.6998       1.0185
   29       7.0871       -4.5599      11.6470        -4.0040      11.0911
   30       6.5243       -4.6395      11.1638        -4.8665      11.3908
   31       5.7691        3.9972       1.7719        -5.2747      11.0438
   42     200.0739       -0.0030     200.0769         0.0018     200.0721
 Sum      223.9227      -14.5100     238.4327       -20.2953     244.2180

 Contributions to Isotropic shielding for atom   12 (    32.4127 ppm):
                         Standard Origin              Atomic Origin
 NLMO      Total    Paramagnetic  Diamagnetic   Paramagnetic  Diamagnetic
    1       1.4327       -0.6699       2.1026         0.4371       0.9956
    2      26.2999        0.1447      26.1551         0.4235      25.8764
    3       1.8809        2.2114      -0.3305         0.0432       1.8377
    4       1.9118        1.6107       0.3011         0.0769       1.8349
    6      -0.1284        0.7427      -0.8711        -1.0703       0.9419
 Sum       31.3969        4.0397      27.3573        -0.0896      31.4865

 Contributions to Isotropic shielding for atom   13 (    32.5441 ppm):
                         Standard Origin              Atomic Origin
 NLMO      Total    Paramagnetic  Diamagnetic   Paramagnetic  Diamagnetic
    1       1.4620       -0.6879       2.1499         0.4693       0.9927
    2       1.9332        2.2648      -0.3316         0.0879       1.8453
    3      26.3440        0.1669      26.1771         0.4451      25.8989
    4       1.9015        1.5801       0.3214         0.0616       1.8400
    5      -0.1353        0.7224      -0.8577        -1.0194       0.8841
 Sum       31.5054        4.0462      27.4592         0.0445      31.4609

 Contributions to Isotropic shielding for atom   14 (    32.8068 ppm):
                         Standard Origin              Atomic Origin
 NLMO      Total    Paramagnetic  Diamagnetic   Paramagnetic  Diamagnetic
    1       1.6455       -1.2451       2.8907         0.7660       0.8795
    2       1.9701        1.8401       0.1300         0.1406       1.8295
    3       1.9369        1.7740       0.1630         0.1076       1.8294
    4      26.3527        0.2812      26.0715         0.4419      25.9108
 Sum       31.9053        2.6502      29.2551         1.4561      30.4492

 Contributions to Isotropic shielding for atom   15 (    32.7400 ppm):
                         Standard Origin              Atomic Origin
 NLMO      Total    Paramagnetic  Diamagnetic   Paramagnetic  Diamagnetic
    1       0.7934        2.1492      -1.3558        -0.1988       0.9922
    2       0.2636       -0.9483       1.2119        -0.6992       0.9628
    3       0.2583       -0.9838       1.2421        -0.7121       0.9705
    5       1.4764        0.1930       1.2834         0.6083       0.8681
    6       1.5636        0.2699       1.2937         0.6620       0.9016
    7      26.4313        0.0183      26.4130         0.3606      26.0707
   12      -0.0291       -0.1106       0.0815        -1.0063       0.9772
   21       0.0065       -0.3532       0.3597        -1.0928       1.0993
 Sum       30.7640        0.2345      30.5295        -2.0785      32.8425

 Contributions to Isotropic shielding for atom   16 (    31.3234 ppm):
                         Standard Origin              Atomic Origin
 NLMO      Total    Paramagnetic  Diamagnetic   Paramagnetic  Diamagnetic
    9       0.6660        0.8321      -0.1661        -0.3560       1.0220
   10       0.9516        1.0014      -0.0498        -1.1191       2.0707
   11      26.3672        0.3786      25.9885         0.7921      25.5751
   21      -0.0455       -0.7240       0.6785        -1.2098       1.1642
 Sum       27.9393        1.4881      26.4511        -1.8928      29.8321

 Contributions to Isotropic shielding for atom   17 (    32.7607 ppm):
                         Standard Origin              Atomic Origin
 NLMO      Total    Paramagnetic  Diamagnetic   Paramagnetic  Diamagnetic
   10       0.0070       -0.3039       0.3109        -1.0335       1.0405
   12       1.2855        0.2657       1.0198         0.3537       0.9319
   13       1.1166        0.9003       0.2163         0.0408       1.0758
   14      26.3934        0.0787      26.3148         0.3973      25.9961
   15       2.1329        1.5075       0.6254         0.3553       1.7776
   16      -0.1535       -0.0797      -0.0739        -1.0087       0.8552
   18      -0.0477       -0.7591       0.7114        -1.2135       1.1658
   26      -0.1647       -1.0470       0.8823        -0.7783       0.6135
   29      -0.3836       -1.4668       1.0832        -0.8567       0.4730
 Sum       30.1859       -0.9043      31.0902        -3.7436      33.9295

 Contributions to Isotropic shielding for atom   18 (    32.4652 ppm):
                         Standard Origin              Atomic Origin
 NLMO      Total    Paramagnetic  Diamagnetic   Paramagnetic  Diamagnetic
   12       1.2926        0.5366       0.7560         0.2093       1.0832
   13       1.0733        1.2032      -0.1299         0.0150       1.0583
   14       2.1398        1.3864       0.7534         0.3464       1.7934
   15      26.3136       -0.0610      26.3746         0.3914      25.9222
   19      -0.0945       -0.7662       0.6718        -1.2420       1.1475
   26      -0.2370       -1.3439       1.1070        -0.9771       0.7401
 Sum       30.4879        0.9550      29.5329        -1.2570      31.7449

 Contributions to Isotropic shielding for atom   19 (    32.6721 ppm):
                         Standard Origin              Atomic Origin
 NLMO      Total    Paramagnetic  Diamagnetic   Paramagnetic  Diamagnetic
    8       1.3390        0.7802       0.5588         0.4158       0.9232
   12       1.2386        0.6221       0.6164         0.2113       1.0273
   15       0.0518       -0.4629       0.5147        -0.9796       1.0314
   16       1.0570        1.2833      -0.2263        -0.1341       1.1911
   17      26.5127       -0.0133      26.5260         0.3950      26.1177
   27      -0.1447       -1.5240       1.3792        -1.0255       0.8807
 Sum       30.0543        0.6854      29.3689        -1.1170      31.1713

 Contributions to Isotropic shielding for atom   20 (    33.2266 ppm):
                         Standard Origin              Atomic Origin
 NLMO      Total    Paramagnetic  Diamagnetic   Paramagnetic  Diamagnetic
    4      -0.0380       -1.3321       1.2941        -0.9249       0.8869
    5       1.1996        0.7334       0.4662         0.2992       0.9004
   10      -0.0259       -0.1313       0.1054        -1.0094       0.9835
   13       1.3763        0.0300       1.3463         0.4009       0.9754
   14      -0.1064       -0.2764       0.1700        -1.2601       1.1538
   18      26.6196        0.1133      26.5063         0.4064      26.2132
   19       2.0214        1.8512       0.1701         0.2170       1.8044
 Sum       31.0465        0.9881      30.0584        -1.8710      32.9175

 Contributions to Isotropic shielding for atom   21 (    32.4395 ppm):
                         Standard Origin              Atomic Origin
 NLMO      Total    Paramagnetic  Diamagnetic   Paramagnetic  Diamagnetic
    3      -0.0799       -1.4695       1.3896        -0.9689       0.8891
    5       1.0055        1.2509      -0.2454         0.0893       0.9162
   13       1.2348        0.6567       0.5781         0.2012       1.0336
   15      -0.0911       -0.0666      -0.0244        -1.2700       1.1790
   18       2.0446        1.5912       0.4535         0.2869       1.7578
   19      26.3569       -0.0455      26.4023         0.4812      25.8756
 Sum       30.4709        1.9173      28.5536        -1.1804      31.6513

 Contributions to Isotropic shielding for atom   22 (    32.5114 ppm):
                         Standard Origin              Atomic Origin
 NLMO      Total    Paramagnetic  Diamagnetic   Paramagnetic  Diamagnetic
    1      -0.1504       -0.2581       0.1077        -1.1861       1.0357
    4      -0.0130       -1.2769       1.2639        -0.9491       0.9361
    6       1.0635        1.0758      -0.0124         0.1777       0.8858
    9       1.3432        0.3927       0.9505         0.4059       0.9373
   10      -0.2341        0.0621      -0.2962        -1.7516       1.5176
   20      26.2389        0.1243      26.1146         0.5320      25.7070
   21       1.9994        1.8611       0.1383         0.2466       1.7528
 Sum       30.2474        1.9810      28.2665        -2.5248      32.7722

 Contributions to Isotropic shielding for atom   23 (    32.0039 ppm):
                         Standard Origin              Atomic Origin
 NLMO      Total    Paramagnetic  Diamagnetic   Paramagnetic  Diamagnetic
    2      -0.0733       -1.3200       1.2466        -0.9327       0.8593
    6       1.0104        1.0105       0.0000        -0.0788       1.0892
    7       0.0451       -0.3426       0.3877        -0.9852       1.0304
    9       1.3600        0.4886       0.8714         0.3999       0.9601
   11      -0.0648       -0.1276       0.0628        -1.2281       1.1633
   20       1.8642        1.6876       0.1766         0.0341       1.8301
   21      26.3812       -0.0217      26.4029         0.4447      25.9365
 Sum       30.5228        1.3748      29.1480        -2.3460      32.8689

 Contributions to Isotropic shielding for atom   24 (    35.1151 ppm):
                         Standard Origin              Atomic Origin
 NLMO      Total    Paramagnetic  Diamagnetic   Paramagnetic  Diamagnetic
   10       2.2846        1.1162       1.1684         1.6804       0.6042
   12      -0.0915       -0.2239       0.1324        -1.0756       0.9841
   13      -0.0301       -0.2897       0.2596        -1.0044       0.9743
   18      -0.3510       -1.0370       0.6860        -0.9250       0.5740
   22      22.8438       -0.3486      23.1924        -0.3232      23.1670
   43       3.6057        1.7994       1.8064         1.6301       1.9757
   44       5.1084        2.0484       3.0600         1.9620       3.1464
 Sum       33.3700        3.0648      30.3052         1.9442      31.4258

 Contributions to Isotropic shielding for atom   25 (    32.3343 ppm):
                         Standard Origin              Atomic Origin
 NLMO      Total    Paramagnetic  Diamagnetic   Paramagnetic  Diamagnetic
   16       1.6693       -0.0563       1.7256         0.6100       1.0593
   23       0.8548        2.0283      -1.1734        -0.1399       0.9947
   24       0.9440        1.6105      -0.6665        -0.1368       1.0808
   25      26.5139       -0.0921      26.6060         0.4247      26.0893
   30       0.1940       -0.6022       0.7962        -0.8092       1.0032
 Sum       30.1760        2.8881      27.2879        -0.0512      30.2272

 Contributions to Isotropic shielding for atom   26 (    32.5681 ppm):
                         Standard Origin              Atomic Origin
 NLMO      Total    Paramagnetic  Diamagnetic   Paramagnetic  Diamagnetic
   12      -0.0597        0.2301      -0.2899        -1.1105       1.0508
   23       1.5403       -1.0201       2.5604         0.6095       0.9308
   24      -0.1440        0.3186      -0.4627        -1.0561       0.9121
   26      26.3221        0.2728      26.0493         0.4056      25.9164
   27       2.0109        0.6719       1.3389         0.2066       1.8043
   28       1.8648        2.1269      -0.2621         0.0241       1.8407
 Sum       31.5343        2.6003      28.9340        -0.9208      32.4550

 Contributions to Isotropic shielding for atom   27 (    32.5847 ppm):
                         Standard Origin              Atomic Origin
 NLMO      Total    Paramagnetic  Diamagnetic   Paramagnetic  Diamagnetic
   23       1.5995       -0.8913       2.4908         0.5938       1.0057
   26       2.0549        0.6895       1.3654         0.2281       1.8268
   27      26.4094        0.2969      26.1125         0.4208      25.9886
   28       1.8744        2.1926      -0.3182         0.0269       1.8475
 Sum       31.9382        2.2877      29.6505         1.2696      30.6686

 Contributions to Isotropic shielding for atom   28 (    32.4433 ppm):
                         Standard Origin              Atomic Origin
 NLMO      Total    Paramagnetic  Diamagnetic   Paramagnetic  Diamagnetic
   23       1.2258        0.4236       0.8021         0.2108       1.0150
   24      -0.1747        0.7492      -0.9239        -1.1345       0.9598
   26       1.9571        1.7782       0.1789         0.0993       1.8578
   27       1.9257        1.8294       0.0963         0.0809       1.8449
   28      26.3696        0.0059      26.3638         0.4649      25.9048
 Sum       31.3036        4.7864      26.5172        -0.2787      31.5823

 Contributions to Isotropic shielding for atom   29 (    32.7482 ppm):
                         Standard Origin              Atomic Origin
 NLMO      Total    Paramagnetic  Diamagnetic   Paramagnetic  Diamagnetic
   12      -0.0976        0.0844      -0.1820        -1.0876       0.9899
   24       1.4949       -0.7639       2.2588         0.5860       0.9089
   29      26.3799        0.2743      26.1056         0.3671      26.0128
   30       2.1453        0.4948       1.6505         0.3006       1.8447
   31       1.9471        2.0690      -0.1219         0.1157       1.8314
 Sum       31.8695        2.1586      29.7109         0.2818      31.5877

 Contributions to Isotropic shielding for atom   30 (    31.9008 ppm):
                         Standard Origin              Atomic Origin
 NLMO      Total    Paramagnetic  Diamagnetic   Paramagnetic  Diamagnetic
   10       0.0489       -0.1445       0.1934        -0.9970       1.0459
   24       1.4866       -0.6495       2.1362         0.4729       1.0137
   29       2.0956        0.4252       1.6704         0.2676       1.8280
   30      25.9449        0.2700      25.6749         0.3992      25.5456
   31       1.8985        2.0917      -0.1932         0.0009       1.8975
   43      -0.3255        0.1259      -0.4513         0.7718      -1.0973
 Sum       31.1490        2.1187      29.0303         0.9155      30.2336

 Contributions to Isotropic shielding for atom   31 (    32.6298 ppm):
                         Standard Origin              Atomic Origin
 NLMO      Total    Paramagnetic  Diamagnetic   Paramagnetic  Diamagnetic
   23      -0.2066        0.6276      -0.8342        -1.2597       1.0531
   24       1.1765        0.8405       0.3360         0.1830       0.9936
   29       2.0123        1.6545       0.3578         0.1436       1.8687
   30       2.0602        1.8351       0.2251         0.1472       1.9129
   31      26.3855       -0.0694      26.4550         0.4079      25.9777
 Sum       31.4279        4.8882      26.5397        -0.3780      31.8059
 
 1\1\GINC-COMPUTE-6-32\SP\RHF\STO-3G\C10H20O1\YTSAI.IQUIR\03-Aug-2021\0
 \\# rhf/STO-3G nmr pop=nbo\\comment\\0,1\C,0,-2.176544057,-0.532442565
 ,-2.902283526\C,0,-1.490156327,-0.450921938,-1.539560602\C,0,0.6911049
 51,-1.153561971,-0.351529805\C,0,-0.368073517,1.10729673,0.138203086\C
 ,0,0.112171439,-0.230607149,0.738931142\C,0,-0.999370707,0.969489746,-
 1.253633633\C,0,-0.340122017,-1.472295839,-1.447796341\O,0,1.845576178
 ,-0.584383946,-0.966199835\C,0,1.030325897,-0.069419991,1.987201548\C,
 0,0.308529941,0.686585052,3.110715625\C,0,2.389186837,0.586991203,1.73
 2178126\H,0,-2.544337737,-1.546483021,-3.091149563\H,0,-3.032843641,0.
 148744144,-2.946704211\H,0,-1.489088626,-0.26376719,-3.71152511\H,0,-2
 .241856144,-0.709916657,-0.781496025\H,0,1.021851172,-2.096092483,0.09
 9358484\H,0,0.447479605,1.835073173,0.073461845\H,0,-1.113172586,1.546
 721002,0.813255244\H,0,-0.787807857,-0.743289649,1.112698167\H,0,-0.26
 450133,1.262227869,-2.014428998\H,0,-1.825383593,1.685742787,-1.343471
 346\H,0,0.167303007,-1.561194186,-2.416908519\H,0,-0.786919579,-2.4533
 36973,-1.240220195\H,0,1.586080283,0.232650418,-1.4216727\H,0,1.231627
 916,-1.079992876,2.36876223\H,0,0.153052919,1.73971591,2.855104316\H,0
 ,-0.66667819,0.236102443,3.323013314\H,0,0.894952395,0.6534284,4.03554
 5638\H,0,2.291556215,1.576574208,1.27751984\H,0,3.019778152,-0.0317541
 49,1.088867732\H,0,2.936279003,0.712117499,2.673764073\\Version=EM64L-
 G09RevC.01\State=1-A\HF=-459.6105005\RMSD=9.957e-09\Dipole=-0.5653227,
 0.1901586,-0.0049762\Quadrupole=-2.123972,1.2881686,0.8358034,1.329232
 ,0.5025827,-1.2339556\PG=C01 [X(C10H20O1)]\\@


 CLIMB THE MOUNTAINS AND GET THEIR GOOD TIDINGS.
 NATURE'S PEACE WILL FLOW INTO YOU AS SUNSHINE FLOWS INTO TREES.
 THE WINDS WILL BLOW THEIR OWN FRESHNESS INTO YOU, 
 AND CARES WILL DROP OFF LIKE AUTUMN LEAVES.

                                         -- JOHN MUIR
 Job cpu time:  0 days  0 hours  0 minutes 23.0 seconds.
 File lengths (MBytes):  RWF=      5 Int=      0 D2E=      0 Chk=      1 Scr=      1
 Normal termination of Gaussian 09 at Tue Aug  3 16:35:31 2021.
