 Entering Gaussian System, Link 0=g09
 Input=/home/ytsai.iquir/menthol/02_menthol_M0079_MMFF_NMR_rhf_STO-3G_nbo.gjc
 Output=/home/ytsai.iquir/menthol/02_menthol_M0079_MMFF_NMR_rhf_STO-3G_nbo.log
 Initial command:
 /share/apps/Gaussian09/EM64T.SSE4.2-enabled/g09/l1.exe /tmp/Gau-29799.inp -scrdir=/tmp/
 Entering Link 1 = /share/apps/Gaussian09/EM64T.SSE4.2-enabled/g09/l1.exe PID=     29800.
  
 Copyright (c) 1988,1990,1992,1993,1995,1998,2003,2009,2011,
            Gaussian, Inc.  All Rights Reserved.
  
 This is part of the Gaussian(R) 09 program.  It is based on
 the Gaussian(R) 03 system (copyright 2003, Gaussian, Inc.),
 the Gaussian(R) 98 system (copyright 1998, Gaussian, Inc.),
 the Gaussian(R) 94 system (copyright 1995, Gaussian, Inc.),
 the Gaussian 92(TM) system (copyright 1992, Gaussian, Inc.),
 the Gaussian 90(TM) system (copyright 1990, Gaussian, Inc.),
 the Gaussian 88(TM) system (copyright 1988, Gaussian, Inc.),
 the Gaussian 86(TM) system (copyright 1986, Carnegie Mellon
 University), and the Gaussian 82(TM) system (copyright 1983,
 Carnegie Mellon University). Gaussian is a federally registered
 trademark of Gaussian, Inc.
  
 This software contains proprietary and confidential information,
 including trade secrets, belonging to Gaussian, Inc.
  
 This software is provided under written license and may be
 used, copied, transmitted, or stored only in accord with that
 written license.
  
 The following legend is applicable only to US Government
 contracts under FAR:
  
                    RESTRICTED RIGHTS LEGEND
  
 Use, reproduction and disclosure by the US Government is
 subject to restrictions as set forth in subparagraphs (a)
 and (c) of the Commercial Computer Software - Restricted
 Rights clause in FAR 52.227-19.
  
 Gaussian, Inc.
 340 Quinnipiac St., Bldg. 40, Wallingford CT 06492
  
  
 ---------------------------------------------------------------
 Warning -- This program may not be used in any manner that
 competes with the business of Gaussian, Inc. or will provide
 assistance to any competitor of Gaussian, Inc.  The licensee
 of this program is prohibited from giving any competitor of
 Gaussian, Inc. access to this program.  By using this program,
 the user acknowledges that Gaussian, Inc. is engaged in the
 business of creating and licensing software in the field of
 computational chemistry and represents and warrants to the
 licensee that it is not a competitor of Gaussian, Inc. and that
 it will not use this program in any manner prohibited above.
 ---------------------------------------------------------------
  

 Cite this work as:
 Gaussian 09, Revision C.01,
 M. J. Frisch, G. W. Trucks, H. B. Schlegel, G. E. Scuseria, 
 M. A. Robb, J. R. Cheeseman, G. Scalmani, V. Barone, B. Mennucci, 
 G. A. Petersson, H. Nakatsuji, M. Caricato, X. Li, H. P. Hratchian, 
 A. F. Izmaylov, J. Bloino, G. Zheng, J. L. Sonnenberg, M. Hada, 
 M. Ehara, K. Toyota, R. Fukuda, J. Hasegawa, M. Ishida, T. Nakajima, 
 Y. Honda, O. Kitao, H. Nakai, T. Vreven, J. A. Montgomery, Jr., 
 J. E. Peralta, F. Ogliaro, M. Bearpark, J. J. Heyd, E. Brothers, 
 K. N. Kudin, V. N. Staroverov, T. Keith, R. Kobayashi, J. Normand, 
 K. Raghavachari, A. Rendell, J. C. Burant, S. S. Iyengar, J. Tomasi, 
 M. Cossi, N. Rega, J. M. Millam, M. Klene, J. E. Knox, J. B. Cross, 
 V. Bakken, C. Adamo, J. Jaramillo, R. Gomperts, R. E. Stratmann, 
 O. Yazyev, A. J. Austin, R. Cammi, C. Pomelli, J. W. Ochterski, 
 R. L. Martin, K. Morokuma, V. G. Zakrzewski, G. A. Voth, 
 P. Salvador, J. J. Dannenberg, S. Dapprich, A. D. Daniels, 
 O. Farkas, J. B. Foresman, J. V. Ortiz, J. Cioslowski, 
 and D. J. Fox, Gaussian, Inc., Wallingford CT, 2010.
 
 ******************************************
 Gaussian 09:  EM64L-G09RevC.01 23-Sep-2011
                 3-Aug-2021 
 ******************************************
 %nprocshared=4
 Will use up to    4 processors via shared memory.
 ------------------------
 # rhf/STO-3G nmr pop=nbo
 ------------------------
 1/38=1/1;
 2/12=2,17=6,18=5,40=1/2;
 3/6=3,11=1,16=1,25=1,30=1,116=1/1,2,8,3;
 4//1;
 5/5=2,38=5/2;
 8/6=1,10=90,11=11/1;
 10/13=100,45=16/2;
 6/7=2,8=2,9=2,10=2,28=1,64=1/1,7;
 99/9=1/99;
 -------
 comment
 -------
 Charge =  0 Multiplicity = 1
 Symbolic Z-Matrix:
 6                     0.08873   0.69304  -3.13405 
 6                    -0.81308  -0.03958  -2.13918 
 6                    -0.6176   -1.46555  -0.05055 
 6                    -0.69615   1.08772   0.13843 
 6                    -0.59193  -0.24741   0.91195 
 6                    -1.48448   0.93987  -1.16011 
 6                    -0.02165  -1.14473  -1.41997 
 8                    -0.00855  -2.62013   0.51154 
 6                     0.53847  -0.25007   1.98494 
 6                     0.30297   0.8372    3.04256 
 6                     1.95664  -0.10379   1.42567 
 1                     0.89734   1.22601  -2.62268 
 1                     0.53942  -0.01195  -3.84067 
 1                    -0.48507   1.42442  -3.71297 
 1                    -1.61395  -0.51471  -2.72147 
 1                    -1.66839  -1.74262  -0.2074 
 1                     0.29541   1.4837   -0.10305 
 1                    -1.18567   1.83767   0.77117 
 1                    -1.52598  -0.33877   1.48838 
 1                    -1.62475   1.92166  -1.62735 
 1                    -2.49024   0.57165  -0.91854 
 1                     1.02987  -0.85595  -1.30256 
 1                     0.00003  -2.0485   -2.04228 
 1                     0.95067  -2.56163   0.37267 
 1                     0.49247  -1.20974   2.51623 
 1                     0.40993   1.84258   2.62268 
 1                    -0.69901   0.75097   3.47572 
 1                     1.02576   0.74093   3.86023 
 1                     2.11477   0.87028   0.95366 
 1                     2.19205  -0.87864   0.69351 
 1                     2.69197  -0.19391   2.23347 
 
                          Input orientation:                          
 ---------------------------------------------------------------------
 Center     Atomic      Atomic             Coordinates (Angstroms)
 Number     Number       Type             X           Y           Z
 ---------------------------------------------------------------------
      1          6           0        0.088729    0.693038   -3.134052
      2          6           0       -0.813081   -0.039578   -2.139182
      3          6           0       -0.617602   -1.465547   -0.050549
      4          6           0       -0.696155    1.087722    0.138428
      5          6           0       -0.591926   -0.247412    0.911952
      6          6           0       -1.484476    0.939870   -1.160106
      7          6           0       -0.021654   -1.144729   -1.419966
      8          8           0       -0.008555   -2.620128    0.511544
      9          6           0        0.538473   -0.250074    1.984940
     10          6           0        0.302974    0.837200    3.042559
     11          6           0        1.956637   -0.103793    1.425671
     12          1           0        0.897342    1.226009   -2.622680
     13          1           0        0.539424   -0.011952   -3.840669
     14          1           0       -0.485074    1.424416   -3.712970
     15          1           0       -1.613946   -0.514713   -2.721469
     16          1           0       -1.668391   -1.742623   -0.207400
     17          1           0        0.295408    1.483700   -0.103046
     18          1           0       -1.185667    1.837666    0.771171
     19          1           0       -1.525980   -0.338772    1.488382
     20          1           0       -1.624751    1.921664   -1.627355
     21          1           0       -2.490240    0.571651   -0.918535
     22          1           0        1.029869   -0.855952   -1.302562
     23          1           0        0.000026   -2.048496   -2.042280
     24          1           0        0.950674   -2.561628    0.372668
     25          1           0        0.492472   -1.209743    2.516234
     26          1           0        0.409928    1.842577    2.622676
     27          1           0       -0.699006    0.750966    3.475715
     28          1           0        1.025761    0.740933    3.860231
     29          1           0        2.114774    0.870281    0.953663
     30          1           0        2.192048   -0.878642    0.693513
     31          1           0        2.691968   -0.193912    2.233471
 ---------------------------------------------------------------------
                    Distance matrix (angstroms):
                    1          2          3          4          5
     1  C    0.000000
     2  C    1.529625   0.000000
     3  C    3.829671   2.536530   0.000000
     4  C    3.388354   2.544009   2.561457   0.000000
     5  C    4.209261   3.066190   1.552714   1.546539   0.000000
     6  C    2.536210   1.539051   2.787224   1.526270   2.549452
     7  C    2.515484   1.537852   1.527541   2.804885   2.562856
     8  O    4.927159   3.785875   1.421248   3.789480   2.475971
     9  C    5.224539   4.345042   2.637631   2.592992   1.558561
    10  C    6.182007   5.372593   3.964520   3.081395   2.552786
    11  C    4.991502   4.514824   3.265012   3.180252   2.603787
    12  H    1.095178   2.181978   4.019376   3.190936   4.108833
    13  H    1.095192   2.173728   4.220978   4.309194   4.891094
    14  H    1.095130   2.174321   4.667202   3.871845   4.918976
    15  H    2.127907   1.098270   3.005096   3.404284   3.783877
    16  H    4.193472   2.713614   1.097967   3.012589   2.155779
    17  H    3.139245   2.773981   3.087782   1.094671   2.194158
    18  H    4.264390   3.483248   3.450962   1.096541   2.172532
    19  H    5.003880   3.709038   2.112600   2.132105   1.101397
    20  H    2.591461   2.183402   3.869608   2.162346   3.495668
    21  H    3.402106   2.162508   2.900060   2.145284   2.761366
    22  H    2.576716   2.182398   2.157151   2.972116   2.811514
    23  H    2.952261   2.169398   2.165245   3.882785   3.510242
    24  H    4.861366   3.972525   1.959591   4.010569   2.833027
    25  H    5.975727   4.974601   2.808216   3.513565   2.162342
    26  H    5.879160   5.264365   4.375572   2.822182   2.880684
    27  H    6.656794   5.671423   4.165825   3.354236   2.753381
    28  H    7.056933   6.323250   4.781568   4.115467   3.505151
    29  H    4.565707   4.354982   3.732347   2.934827   2.928687
    30  H    4.641592   4.214141   2.965168   3.537856   2.862985
    31  H    6.031072   5.606182   4.217470   4.184635   3.540232
                    6          7          8          9         10
     6  C    0.000000
     7  C    2.559869   0.000000
     8  O    4.200755   2.430577   0.000000
     9  C    3.924233   3.564763   2.843816   0.000000
    10  C    4.568141   4.893624   4.296069   1.534986   0.000000
    11  C    4.429078   3.618678   3.321076   1.531460   2.496877
    12  H    2.809636   2.812734   5.043489   4.851574   5.709587
    13  H    3.491068   2.730896   5.103393   5.830474   6.939438
    14  H    2.784008   3.474641   5.867872   6.026420   6.826640
    15  H    2.137857   2.150867   4.178807   5.182010   6.223044
    16  H    2.852586   2.130619   2.010461   3.450262   4.593909
    17  H    2.140353   2.956932   4.160712   2.724838   3.211363
    18  H    2.150617   3.879522   4.617892   2.967247   2.894165
    19  H    2.941282   3.372099   2.908845   2.125182   2.672723
    20  H    1.096320   3.466367   5.273979   4.737579   5.167231
    21  H    1.097954   3.048165   4.288513   4.275337   4.854156
    22  H    3.093089   1.096757   2.735255   3.378791   4.719663
    23  H    3.451421   1.097515   2.617031   4.443281   5.854452
    24  H    4.532090   2.483256   0.970993   2.848265   4.370339
    25  H    4.695171   3.970167   2.501799   1.097886   2.122004
    26  H    4.325862   5.045117   4.954568   2.191442   1.094771
    27  H    4.705686   5.293407   4.541730   2.180790   1.095000
    28  H    5.616462   5.703795   4.855949   2.176295   1.095571
    29  H    4.174621   3.776070   4.109374   2.191679   2.765358
    30  H    4.501080   3.072144   2.812212   2.190250   3.468535
    31  H    5.499501   4.649236   4.018007   2.168517   2.724906
                   11         12         13         14         15
    11  C    0.000000
    12  H    4.390857   0.000000
    13  H    5.454472   1.773176   0.000000
    14  H    5.890926   1.771771   1.768914   0.000000
    15  H    5.487868   3.057195   2.478382   2.453089   0.000000
    16  H    4.300408   4.607531   4.590241   4.870256   2.798441
    17  H    2.759854   2.603322   4.033156   3.693808   3.807286
    18  H    3.751228   4.028806   5.259857   4.557315   4.232688
    19  H    3.491098   5.022137   5.724639   5.589846   4.214445
    20  H    5.123454   2.799208   3.649834   2.428149   2.670793
    21  H    5.072104   3.848118   4.249508   3.543552   2.280054
    22  H    2.977902   2.468772   2.719349   3.647629   3.019851
    23  H    4.431352   3.444478   2.769958   3.884282   2.327809
    24  H    2.856874   4.829198   4.941881   5.885776   4.510080
    25  H    2.134533   5.701337   6.468936   6.833547   5.688023
    26  H    2.759255   5.303913   6.725391   6.412199   6.181648
    27  H    3.462042   6.321742   7.459574   7.223330   6.390943
    28  H    2.739922   6.502301   7.752885   7.752621   7.201630
    29  H    1.093902   3.794589   5.123054   5.370636   5.415548
    30  H    1.091726   4.135572   4.903175   5.646959   5.126416
    31  H    1.096072   5.368339   6.446839   6.933451   6.572309
                   16         17         18         19         20
    16  H    0.000000
    17  H    3.778433   0.000000
    18  H    3.742872   1.755885   0.000000
    19  H    2.206072   3.028449   2.316698   0.000000
    20  H    3.930035   2.490450   2.439831   3.850603   0.000000
    21  H    2.556758   3.042481   2.481897   2.748076   1.753292
    22  H    3.044039   2.729880   4.057653   3.819582   3.855859
    23  H    2.498791   4.040333   4.942027   4.209207   4.309784
    24  H    2.804772   4.125574   4.906786   3.509946   5.543718
    25  H    3.517310   3.762193   3.892056   2.426771   5.608714
    26  H    5.018206   2.751630   2.444181   3.129320   4.712635
    27  H    4.552256   3.785933   2.955049   2.412656   5.316847
    28  H    5.474680   4.097887   3.954179   3.647301   6.207490
    29  H    4.742117   2.191577   3.444133   3.873348   4.663808
    30  H    4.057228   3.132477   4.335127   3.840183   5.272201
    31  H    5.231547   3.743955   4.615375   4.285700   6.165688
                   21         22         23         24         25
    21  H    0.000000
    22  H    3.817944   0.000000
    23  H    3.785419   1.740667   0.000000
    24  H    4.829548   2.392070   2.645564   0.000000
    25  H    4.885445   3.872618   4.661122   2.575348   0.000000
    26  H    4.750411   4.803528   6.088537   4.975134   3.055290
    27  H    4.748696   5.329459   6.226870   4.829454   2.486887
    28  H    5.935278   5.404118   6.608531   4.803711   2.428139
    29  H    4.980006   3.040962   4.686907   3.670243   3.065941
    30  H    5.160027   2.309868   3.695684   2.115749   2.514061
    31  H    6.113633   3.962878   5.382200   3.478616   2.439191
                   26         27         28         29         30
    26  H    0.000000
    27  H    1.774549   0.000000
    28  H    1.767600   1.767137   0.000000
    29  H    2.576328   3.780522   3.106577   0.000000
    30  H    3.781885   4.330643   3.743174   1.769854   0.000000
    31  H    3.083258   3.732918   2.509289   1.761695   1.757910
                   31
    31  H    0.000000
 Stoichiometry    C10H20O
 Framework group  C1[X(C10H20O)]
 Deg. of freedom    87
 Full point group                 C1      NOp   1
 Largest Abelian subgroup         C1      NOp   1
 Largest concise Abelian subgroup C1      NOp   1
                         Standard orientation:                         
 ---------------------------------------------------------------------
 Center     Atomic      Atomic             Coordinates (Angstroms)
 Number     Number       Type             X           Y           Z
 ---------------------------------------------------------------------
      1          6           0       -3.046756   -0.546575    1.078196
      2          6           0       -2.278003   -0.070159   -0.155417
      3          6           0       -0.140872    1.167545   -0.733987
      4          6           0       -0.102795   -1.369544   -0.383570
      5          6           0        0.736140   -0.113648   -0.716283
      6          6           0       -1.549760   -1.234576   -0.850021
      7          6           0       -1.328830    1.079378    0.222236
      8          8           0        0.612739    2.349900   -0.501496
      9          6           0        2.059112   -0.022929    0.102637
     10          6           0        2.968310   -1.227983   -0.175548
     11          6           0        1.870553    0.121556    1.615561
     12          1           0       -2.374014   -0.982870    1.824172
     13          1           0       -3.581006    0.286311    1.547581
     14          1           0       -3.787045   -1.306062    0.805318
     15          1           0       -3.020126    0.317258   -0.866302
     16          1           0       -0.544862    1.279311   -1.748794
     17          1           0       -0.104464   -1.570768    0.692446
     18          1           0        0.348057   -2.246134   -0.863907
     19          1           0        1.061132   -0.233093   -1.761838
     20          1           0       -2.084647   -2.178154   -0.690411
     21          1           0       -1.552948   -1.062973   -1.934477
     22          1           0       -0.963339    0.959924    1.249379
     23          1           0       -1.880511    2.028154    0.225854
     24          1           0        0.718491    2.465020    0.456832
     25          1           0        2.607652    0.861967   -0.245812
     26          1           0        2.540612   -2.157988    0.212640
     27          1           0        3.137426   -1.350413   -1.250460
     28          1           0        3.945991   -1.089410    0.299015
     29          1           0        1.406975   -0.764348    2.059285
     30          1           0        1.260545    0.989577    1.873037
     31          1           0        2.841572    0.257101    2.105586
 ---------------------------------------------------------------------
 Rotational constants (GHZ):      1.5357277      0.7777574      0.6628958
 Standard basis: STO-3G (5D, 7F)
 There are    75 symmetry adapted basis functions of A   symmetry.
 Integral buffers will be    131072 words long.
 Raffenetti 1 integral format.
 Two-electron integral symmetry is turned on.
    75 basis functions,   225 primitive gaussians,    75 cartesian basis functions
    44 alpha electrons       44 beta electrons
       nuclear repulsion energy       698.0969732935 Hartrees.
 NAtoms=   31 NActive=   31 NUniq=   31 SFac= 1.00D+00 NAtFMM=   60 NAOKFM=F Big=F
 One-electron integrals computed using PRISM.
 NBasis=    75 RedAO= T  NBF=    75
 NBsUse=    75 1.00D-06 NBFU=    75
 Harris functional with IExCor=  205 diagonalized for initial guess.
 ExpMin= 1.69D-01 ExpMax= 1.31D+02 ExpMxC= 1.31D+02 IAcc=1 IRadAn=         1 AccDes= 0.00D+00
 HarFok:  IExCor=  205 AccDes= 0.00D+00 IRadAn=         1 IDoV= 1
 ScaDFX=  1.000000  1.000000  1.000000  1.000000
 FoFCou: FMM=F IPFlag=           0 FMFlag=      100000 FMFlg1=           0
         NFxFlg=           0 DoJE=T BraDBF=F KetDBF=T FulRan=T
         Omega=  0.000000  0.000000  1.000000  0.000000  0.000000 ICntrl=     500 IOpCl=  0
         NMat0=    1 NMatS0=    1 NMatT0=    0 NMatD0=    1 NMtDS0=    0 NMtDT0=    0
         I1Cent=           4 NGrid=           0.
 Petite list used in FoFCou.
 Initial guess orbital symmetries:
       Occupied  (A) (A) (A) (A) (A) (A) (A) (A) (A) (A) (A) (A)
                 (A) (A) (A) (A) (A) (A) (A) (A) (A) (A) (A) (A)
                 (A) (A) (A) (A) (A) (A) (A) (A) (A) (A) (A) (A)
                 (A) (A) (A) (A) (A) (A) (A) (A)
       Virtual   (A) (A) (A) (A) (A) (A) (A) (A) (A) (A) (A) (A)
                 (A) (A) (A) (A) (A) (A) (A) (A) (A) (A) (A) (A)
                 (A) (A) (A) (A) (A) (A) (A)
 The electronic state of the initial guess is 1-A.
 Requested convergence on RMS density matrix=1.00D-08 within 128 cycles.
 Requested convergence on MAX density matrix=1.00D-06.
 Requested convergence on             energy=1.00D-06.
 No special actions if energy rises.
 Keep R1 ints in memory in canonical form, NReq=4898789.
 SCF Done:  E(RHF) =  -459.608958270     A.U. after   10 cycles
             Convg  =    0.9489D-08             -V/T =  2.0089
 Range of M.O.s used for correlation:     1    75
 NBasis=    75 NAE=    44 NBE=    44 NFC=     0 NFV=     0
 NROrb=     75 NOA=    44 NOB=    44 NVA=    31 NVB=    31
          Differentiating once with respect to magnetic field using GIAOs.
          Electric field/nuclear overlap derivatives assumed to be zero.
          Keep R3 ints in memory in canonical form, NReq=4863575.
 FoFCou: FMM=F IPFlag=           0 FMFlag=           0 FMFlg1=           0
         NFxFlg=           0 DoJE=F BraDBF=F KetDBF=T FulRan=T
         Omega=  0.000000  0.000000  1.000000  0.000000  0.000000 ICntrl=    6100 IOpCl=  0
         NMat0=    1 NMatS0=    1 NMatT0=    0 NMatD0=    1 NMtDS0=    0 NMtDT0=    0
         I1Cent=           7 NGrid=          31.
 Symmetry not used in FoFCou.
          There are     3 degrees of freedom in the 1st order CPHF.  IDoFFX=0.
      3 vectors produced by pass  0 Test12= 4.55D-14 3.33D-08 XBig12= 6.45D+00 4.02D-01.
 AX will form     3 AO Fock derivatives at one time.
      3 vectors produced by pass  1 Test12= 4.55D-14 3.33D-08 XBig12= 9.56D-03 1.30D-02.
      3 vectors produced by pass  2 Test12= 4.55D-14 3.33D-08 XBig12= 6.81D-05 2.44D-03.
      3 vectors produced by pass  3 Test12= 4.55D-14 3.33D-08 XBig12= 1.80D-06 2.71D-04.
      3 vectors produced by pass  4 Test12= 4.55D-14 3.33D-08 XBig12= 1.96D-08 3.20D-05.
      3 vectors produced by pass  5 Test12= 4.55D-14 3.33D-08 XBig12= 3.41D-10 3.59D-06.
      3 vectors produced by pass  6 Test12= 4.55D-14 3.33D-08 XBig12= 4.24D-12 4.58D-07.
      1 vectors produced by pass  7 Test12= 4.55D-14 3.33D-08 XBig12= 4.85D-14 2.91D-08.
 Inverted reduced A of dimension    22 with in-core refinement.
 Calculating GIAO nuclear magnetic shielding tensors.
 SCF GIAO Magnetic shielding tensor (ppm):
      1  C    Isotropic =   221.0616   Anisotropy =    26.4311
   XX=   221.5318   YX=     9.2884   ZX=    -9.4617
   XY=     7.1290   YY=   215.7606   ZY=    -3.4712
   XZ=   -15.0711   YZ=    -2.2552   ZZ=   225.8926
   Eigenvalues:   207.8914   216.6112   238.6824
      2  C    Isotropic =   216.3623   Anisotropy =     9.1302
   XX=   220.7191   YX=     1.5049   ZX=    -4.0773
   XY=     2.5334   YY=   218.2593   ZY=     2.8382
   XZ=    -4.6814   YZ=     4.3506   ZZ=   210.1086
   Eigenvalues:   207.0553   219.5826   222.4492
      3  C    Isotropic =   189.1693   Anisotropy =    42.5331
   XX=   192.3746   YX=    16.3551   ZX=     3.6245
   XY=    14.8352   YY=   205.1194   ZY=     8.4576
   XZ=     5.0094   YZ=     8.8088   ZZ=   170.0140
   Eigenvalues:   167.9803   182.0029   217.5247
      4  C    Isotropic =   220.6158   Anisotropy =    14.0602
   XX=   227.2982   YX=     3.8471   ZX=     2.9178
   XY=     3.3588   YY=   224.4971   ZY=    -0.1440
   XZ=     3.0143   YZ=    -1.1215   ZZ=   210.0523
   Eigenvalues:   209.4533   222.4049   229.9893
      5  C    Isotropic =   210.3898   Anisotropy =    16.2451
   XX=   218.3794   YX=    -5.7461   ZX=     6.6838
   XY=     1.5305   YY=   211.4794   ZY=     1.1248
   XZ=     7.6314   YZ=     1.6715   ZZ=   201.3104
   Eigenvalues:   198.3877   211.5617   221.2198
      6  C    Isotropic =   217.4945   Anisotropy =    13.8602
   XX=   221.3554   YX=    -3.2804   ZX=    -4.0925
   XY=    -2.2851   YY=   220.2399   ZY=     6.8331
   XZ=    -4.0451   YZ=     5.0255   ZZ=   210.8881
   Eigenvalues:   207.5392   218.2097   226.7346
      7  C    Isotropic =   214.8610   Anisotropy =    24.1967
   XX=   221.4276   YX=    12.0336   ZX=    -5.8809
   XY=    11.1313   YY=   213.0703   ZY=    -0.0049
   XZ=    -6.3936   YZ=    -1.3925   ZZ=   210.0852
   Eigenvalues:   203.3729   210.2180   230.9922
      8  O    Isotropic =   360.7255   Anisotropy =    75.7199
   XX=   344.1851   YX=     6.4802   ZX=    -8.4931
   XY=     0.9695   YY=   327.2316   ZY=   -21.4458
   XZ=     2.3943   YZ=    11.6431   ZZ=   410.7597
   Eigenvalues:   326.2415   344.7295   411.2054
      9  C    Isotropic =   215.1381   Anisotropy =    12.9457
   XX=   221.7506   YX=    -2.5734   ZX=     2.9747
   XY=    -4.0476   YY=   208.4914   ZY=     4.4813
   XZ=     5.1047   YZ=     4.2946   ZZ=   215.1722
   Eigenvalues:   204.9389   216.7068   223.7686
     10  C    Isotropic =   220.8799   Anisotropy =    27.3347
   XX=   223.8163   YX=   -12.4716   ZX=    -4.4020
   XY=   -15.4710   YY=   222.8592   ZY=     7.4983
   XZ=    -1.4137   YZ=     4.9046   ZZ=   215.9643
   Eigenvalues:   208.3921   215.1447   239.1031
     11  C    Isotropic =   223.9489   Anisotropy =    20.5964
   XX=   219.0419   YX=    -3.4262   ZX=    -0.6414
   XY=    -3.3720   YY=   216.4036   ZY=     3.1594
   XZ=    -2.0924   YZ=     6.2098   ZZ=   236.4011
   Eigenvalues:   213.6198   220.5470   237.6798
     12  H    Isotropic =    32.6754   Anisotropy =     9.3183
   XX=    32.3803   YX=    -0.9927   ZX=     0.8189
   XY=    -0.8986   YY=    29.1669   ZY=    -4.5557
   XZ=     0.7480   YZ=    -4.6355   ZZ=    36.4790
   Eigenvalues:    26.9018    32.2368    38.8876
     13  H    Isotropic =    32.4987   Anisotropy =    13.6911
   XX=    33.9929   YX=    -3.3709   ZX=    -5.9126
   XY=    -3.5682   YY=    31.9657   ZY=     3.4522
   XZ=    -6.4072   YZ=     3.8118   ZZ=    31.5376
   Eigenvalues:    26.3823    29.4878    41.6261
     14  H    Isotropic =    32.5509   Anisotropy =    14.4141
   XX=    36.8098   YX=     7.1133   ZX=    -1.2252
   XY=     7.1377   YY=    32.5196   ZY=     0.6487
   XZ=    -1.5045   YZ=     0.1274   ZZ=    28.3234
   Eigenvalues:    26.5069    28.9855    42.1604
     15  H    Isotropic =    32.3409   Anisotropy =    14.4291
   XX=    36.3248   YX=    -3.4965   ZX=     6.2013
   XY=    -3.3814   YY=    28.6849   ZY=    -2.5728
   XZ=     5.7985   YZ=    -2.7195   ZZ=    32.0129
   Eigenvalues:    27.2150    27.8473    41.9603
     16  H    Isotropic =    31.3113   Anisotropy =    10.7515
   XX=    28.5842   YX=    -0.4221   ZX=     3.5552
   XY=     0.1229   YY=    28.9888   ZY=    -2.8163
   XZ=     2.5756   YZ=    -3.7504   ZZ=    36.3607
   Eigenvalues:    26.8155    28.6393    38.4789
     17  H    Isotropic =    32.9135   Anisotropy =     7.9896
   XX=    33.1240   YX=     0.7933   ZX=     1.5396
   XY=     0.6169   YY=    29.8471   ZY=    -4.0594
   XZ=     1.7417   YZ=    -4.4249   ZZ=    35.7696
   Eigenvalues:    27.2992    33.2015    38.2399
     18  H    Isotropic =    32.5361   Anisotropy =    13.6515
   XX=    32.9320   YX=    -3.1732   ZX=    -0.9901
   XY=    -3.4487   YY=    38.3510   ZY=     5.2147
   XZ=    -0.9780   YZ=     5.1377   ZZ=    26.3254
   Eigenvalues:    24.3975    31.5737    41.6371
     19  H    Isotropic =    32.0289   Anisotropy =    12.1130
   XX=    30.5105   YX=    -1.1627   ZX=    -3.3698
   XY=    -1.9443   YY=    26.9201   ZY=     1.2987
   XZ=    -3.5373   YZ=     0.8385   ZZ=    38.6562
   Eigenvalues:    26.3369    29.6456    40.1043
     20  H    Isotropic =    32.6163   Anisotropy =    13.8864
   XX=    32.8326   YX=     5.3924   ZX=    -0.4519
   XY=     5.8978   YY=    38.2051   ZY=     2.0571
   XZ=    -0.7969   YZ=     1.6661   ZZ=    26.8113
   Eigenvalues:    26.0038    29.9712    41.8739
     21  H    Isotropic =    32.4910   Anisotropy =    13.0743
   XX=    29.5596   YX=     0.4929   ZX=     2.2064
   XY=     0.3409   YY=    27.5027   ZY=     2.0910
   XZ=     2.4582   YZ=     1.9894   ZZ=    40.4108
   Eigenvalues:    27.1863    29.0795    41.2073
     22  H    Isotropic =    33.3205   Anisotropy =     7.2553
   XX=    33.7391   YX=     0.6216   ZX=     1.5168
   XY=     0.9329   YY=    28.8054   ZY=     1.5653
   XZ=     1.0838   YZ=     1.6088   ZZ=    37.4169
   Eigenvalues:    28.4652    33.3388    38.1573
     23  H    Isotropic =    32.2081   Anisotropy =    13.6296
   XX=    32.7533   YX=    -4.7830   ZX=    -1.0948
   XY=    -4.6208   YY=    38.4895   ZY=     1.0616
   XZ=    -1.5882   YZ=     1.1500   ZZ=    25.3816
   Eigenvalues:    25.1379    30.1920    41.2945
     24  H    Isotropic =    35.0920   Anisotropy =    13.4115
   XX=    29.0369   YX=     2.8903   ZX=     2.6990
   XY=     3.1177   YY=    35.8747   ZY=     2.5555
   XZ=     4.3224   YZ=     5.3141   ZZ=    40.3644
   Eigenvalues:    27.5535    33.6895    44.0330
     25  H    Isotropic =    31.9756   Anisotropy =    11.7155
   XX=    34.2085   YX=     4.3326   ZX=    -2.2284
   XY=     4.0702   YY=    34.9490   ZY=    -3.0687
   XZ=    -1.4055   YZ=    -3.3101   ZZ=    26.7694
   Eigenvalues:    25.6539    30.4871    39.7860
     26  H    Isotropic =    32.5977   Anisotropy =     9.6429
   XX=    31.8834   YX=    -0.6817   ZX=    -0.4872
   XY=    -0.7847   YY=    38.5128   ZY=    -2.2154
   XZ=    -0.2783   YZ=    -2.3744   ZZ=    27.3970
   Eigenvalues:    26.8878    31.8791    39.0263
     27  H    Isotropic =    32.4626   Anisotropy =    13.2735
   XX=    31.9529   YX=    -3.1381   ZX=    -4.5537
   XY=    -3.2620   YY=    28.2331   ZY=     3.8112
   XZ=    -4.1917   YZ=     3.1522   ZZ=    37.2017
   Eigenvalues:    26.2894    29.7868    41.3116
     28  H    Isotropic =    32.4557   Anisotropy =    14.5693
   XX=    41.0402   YX=    -2.1052   ZX=     3.1710
   XY=    -2.4931   YY=    27.7958   ZY=     0.8467
   XZ=     3.5391   YZ=     0.9137   ZZ=    28.5311
   Eigenvalues:    26.1965    29.0021    42.1686
     29  H    Isotropic =    32.7768   Anisotropy =     9.2903
   XX=    30.8358   YX=     2.8472   ZX=    -0.8351
   XY=     2.8425   YY=    32.4731   ZY=    -4.1603
   XZ=    -0.7873   YZ=    -4.4990   ZZ=    35.0214
   Eigenvalues:    27.8979    31.4622    38.9703
     30  H    Isotropic =    33.3626   Anisotropy =     9.8101
   XX=    32.4927   YX=    -4.9308   ZX=     0.2373
   XY=    -4.7523   YY=    34.0683   ZY=     4.2946
   XZ=     0.3640   YZ=     4.3439   ZZ=    33.5267
   Eigenvalues:    26.8142    33.3709    39.9027
     31  H    Isotropic =    32.6208   Anisotropy =    14.6645
   XX=    36.3418   YX=     1.1738   ZX=     6.4234
   XY=     0.9210   YY=    27.1981   ZY=     2.4071
   XZ=     6.8334   YZ=     2.3137   ZZ=    34.3223
   Eigenvalues:    26.3201    29.1451    42.3971
 End of Minotr Frequency-dependent properties file   721 does not exist.
 End of Minotr Frequency-dependent properties file   722 does not exist.

 **********************************************************************

            Population analysis using the SCF density.

 **********************************************************************

 Orbital symmetries:
       Occupied  (A) (A) (A) (A) (A) (A) (A) (A) (A) (A) (A) (A)
                 (A) (A) (A) (A) (A) (A) (A) (A) (A) (A) (A) (A)
                 (A) (A) (A) (A) (A) (A) (A) (A) (A) (A) (A) (A)
                 (A) (A) (A) (A) (A) (A) (A) (A)
       Virtual   (A) (A) (A) (A) (A) (A) (A) (A) (A) (A) (A) (A)
                 (A) (A) (A) (A) (A) (A) (A) (A) (A) (A) (A) (A)
                 (A) (A) (A) (A) (A) (A) (A)
 The electronic state is 1-A.
 Alpha  occ. eigenvalues --  -20.23970 -11.08448 -11.04858 -11.04746 -11.03857
 Alpha  occ. eigenvalues --  -11.03835 -11.03730 -11.03636 -11.03550 -11.03368
 Alpha  occ. eigenvalues --  -11.03059  -1.27987  -1.08283  -1.03786  -0.96937
 Alpha  occ. eigenvalues --   -0.94759  -0.89320  -0.88019  -0.81232  -0.78306
 Alpha  occ. eigenvalues --   -0.72876  -0.68142  -0.63906  -0.60774  -0.59603
 Alpha  occ. eigenvalues --   -0.58042  -0.55763  -0.54896  -0.52596  -0.52373
 Alpha  occ. eigenvalues --   -0.51505  -0.49793  -0.49566  -0.48602  -0.47450
 Alpha  occ. eigenvalues --   -0.46210  -0.45202  -0.43008  -0.42248  -0.41152
 Alpha  occ. eigenvalues --   -0.40045  -0.38509  -0.36103  -0.32649
 Alpha virt. eigenvalues --    0.52881   0.54966   0.57274   0.59085   0.60285
 Alpha virt. eigenvalues --    0.60816   0.62228   0.63727   0.65345   0.66428
 Alpha virt. eigenvalues --    0.67144   0.68079   0.70457   0.71195   0.71530
 Alpha virt. eigenvalues --    0.72712   0.72883   0.74583   0.74728   0.75956
 Alpha virt. eigenvalues --    0.76664   0.78032   0.78673   0.79713   0.80599
 Alpha virt. eigenvalues --    0.80936   0.82441   0.83392   0.85276   0.86496
 Alpha virt. eigenvalues --    0.87077
          Condensed to atoms (all electrons):
              1          2          3          4          5          6
     1  C    4.741135   0.364944   0.000709  -0.000144   0.000009  -0.023891
     2  C    0.364944   4.746052  -0.019453  -0.022238  -0.002413   0.361433
     3  C    0.000709  -0.019453   4.743222  -0.020664   0.349675  -0.007269
     4  C   -0.000144  -0.022238  -0.020664   4.758336   0.358979   0.363154
     5  C    0.000009  -0.002413   0.349675   0.358979   4.798142  -0.020725
     6  C   -0.023891   0.361433  -0.007269   0.363154  -0.020725   4.757839
     7  C   -0.024903   0.360591   0.357918  -0.006999  -0.024366  -0.021802
     8  O   -0.000001   0.000238   0.270732   0.000194  -0.017219   0.000007
     9  C    0.000000   0.000010  -0.017583  -0.019591   0.358180   0.000586
    10  C    0.000000   0.000000   0.000568  -0.001933  -0.021853   0.000009
    11  C    0.000000   0.000007  -0.000565  -0.002139  -0.020308   0.000008
    12  H    0.382055  -0.020740   0.000015  -0.000029   0.000012  -0.001917
    13  H    0.382435  -0.020152   0.000014  -0.000013  -0.000001   0.001279
    14  H    0.382533  -0.020164  -0.000017   0.000022  -0.000001  -0.002350
    15  H   -0.024886   0.383251  -0.000106   0.001277   0.000019  -0.024748
    16  H    0.000006  -0.002252   0.380286   0.000577  -0.025513  -0.000274
    17  H    0.000024  -0.002198  -0.000047   0.381055  -0.021406  -0.023855
    18  H   -0.000009   0.001263   0.001118   0.383814  -0.021052  -0.021660
    19  H    0.000000   0.000021  -0.026091  -0.024657   0.380704  -0.000405
    20  H   -0.005199  -0.020747   0.000064  -0.021030   0.001181   0.383344
    21  H    0.001309  -0.022312  -0.000292  -0.023698  -0.002349   0.381814
    22  H   -0.005265  -0.020967  -0.023665   0.000064  -0.002145   0.000104
    23  H   -0.000005  -0.020348  -0.020863   0.000053   0.001164   0.001133
    24  H    0.000000   0.000015  -0.041885  -0.000027  -0.000203   0.000002
    25  H    0.000000  -0.000001  -0.002031   0.001087  -0.022724  -0.000013
    26  H    0.000000   0.000000  -0.000002  -0.000542  -0.001394   0.000004
    27  H    0.000000   0.000000   0.000016  -0.000041  -0.002471  -0.000002
    28  H    0.000000   0.000000  -0.000012   0.000016   0.001154   0.000000
    29  H    0.000000   0.000001   0.000009  -0.000750  -0.001268  -0.000004
    30  H    0.000000   0.000003   0.000200   0.000046  -0.001635  -0.000002
    31  H    0.000000   0.000000  -0.000004   0.000021   0.001105   0.000000
              7          8          9         10         11         12
     1  C   -0.024903  -0.000001   0.000000   0.000000   0.000000   0.382055
     2  C    0.360591   0.000238   0.000010   0.000000   0.000007  -0.020740
     3  C    0.357918   0.270732  -0.017583   0.000568  -0.000565   0.000015
     4  C   -0.006999   0.000194  -0.019591  -0.001933  -0.002139  -0.000029
     5  C   -0.024366  -0.017219   0.358180  -0.021853  -0.020308   0.000012
     6  C   -0.021802   0.000007   0.000586   0.000009   0.000008  -0.001917
     7  C    4.788211  -0.017192   0.000138  -0.000004  -0.000287  -0.002312
     8  O   -0.017192   7.841898  -0.002069   0.000002  -0.000231   0.000000
     9  C    0.000138  -0.002069   4.740670   0.364064   0.363546   0.000000
    10  C   -0.000004   0.000002   0.364064   4.742907  -0.026522   0.000000
    11  C   -0.000287  -0.000231   0.363546  -0.026522   4.744839  -0.000001
    12  H   -0.002312   0.000000   0.000000   0.000000  -0.000001   0.632381
    13  H   -0.002243   0.000000   0.000000   0.000000   0.000000  -0.021728
    14  H    0.001301   0.000000   0.000000   0.000000   0.000000  -0.021824
    15  H   -0.023838  -0.000003   0.000000   0.000000   0.000000   0.001942
    16  H   -0.025852  -0.021189   0.000990  -0.000013  -0.000015  -0.000001
    17  H    0.000008  -0.000002  -0.003372  -0.000091  -0.000778   0.000005
    18  H    0.000040  -0.000003  -0.000125  -0.000521   0.000038  -0.000011
    19  H    0.001375   0.000356  -0.024736  -0.003248   0.001201   0.000000
    20  H    0.001076   0.000000  -0.000013   0.000000   0.000000   0.000041
    21  H    0.000275   0.000001   0.000006   0.000000  -0.000001   0.000001
    22  H    0.380119  -0.000876   0.000109  -0.000002  -0.000659   0.000310
    23  H    0.382060  -0.000831  -0.000012   0.000000   0.000005   0.000008
    24  H   -0.005538   0.258490   0.000020   0.000002  -0.000974   0.000000
    25  H    0.000022   0.000432   0.382047  -0.024539  -0.024522   0.000000
    26  H    0.000000   0.000000  -0.020350   0.382312  -0.002503   0.000000
    27  H    0.000000   0.000000  -0.020053   0.382230   0.001323   0.000000
    28  H    0.000000   0.000000  -0.019891   0.382619  -0.002135   0.000000
    29  H   -0.000012   0.000006  -0.020033  -0.002457   0.382510   0.000000
    30  H   -0.000649  -0.000534  -0.019932   0.001345   0.381949   0.000000
    31  H    0.000006   0.000005  -0.019911  -0.002440   0.382239   0.000000
             13         14         15         16         17         18
     1  C    0.382435   0.382533  -0.024886   0.000006   0.000024  -0.000009
     2  C   -0.020152  -0.020164   0.383251  -0.002252  -0.002198   0.001263
     3  C    0.000014  -0.000017  -0.000106   0.380286  -0.000047   0.001118
     4  C   -0.000013   0.000022   0.001277   0.000577   0.381055   0.383814
     5  C   -0.000001  -0.000001   0.000019  -0.025513  -0.021406  -0.021052
     6  C    0.001279  -0.002350  -0.024748  -0.000274  -0.023855  -0.021660
     7  C   -0.002243   0.001301  -0.023838  -0.025852   0.000008   0.000040
     8  O    0.000000   0.000000  -0.000003  -0.021189  -0.000002  -0.000003
     9  C    0.000000   0.000000   0.000000   0.000990  -0.003372  -0.000125
    10  C    0.000000   0.000000   0.000000  -0.000013  -0.000091  -0.000521
    11  C    0.000000   0.000000   0.000000  -0.000015  -0.000778   0.000038
    12  H   -0.021728  -0.021824   0.001942  -0.000001   0.000005  -0.000011
    13  H    0.630458  -0.021690  -0.002292  -0.000001  -0.000011   0.000001
    14  H   -0.021690   0.630659  -0.002545   0.000000   0.000013  -0.000001
    15  H   -0.002292  -0.002545   0.652008   0.000276   0.000004  -0.000035
    16  H   -0.000001   0.000000   0.000276   0.641593  -0.000024  -0.000033
    17  H   -0.000011   0.000013   0.000004  -0.000024   0.646741  -0.023954
    18  H    0.000001  -0.000001  -0.000035  -0.000033  -0.023954   0.639878
    19  H    0.000000   0.000000   0.000002  -0.007397   0.001908  -0.005514
    20  H    0.000074   0.000073   0.000424   0.000009  -0.002159  -0.002471
    21  H   -0.000037   0.000048  -0.006139  -0.000509   0.002071  -0.002238
    22  H   -0.000132   0.000074   0.001853   0.001972  -0.000363  -0.000001
    23  H    0.000165  -0.000022  -0.005551  -0.002323  -0.000001   0.000001
    24  H    0.000000   0.000000   0.000000   0.003735   0.000002   0.000000
    25  H    0.000000   0.000000   0.000000   0.000031   0.000023  -0.000015
    26  H    0.000000   0.000000   0.000000   0.000000  -0.000021  -0.000686
    27  H    0.000000   0.000000   0.000000  -0.000001   0.000015   0.000002
    28  H    0.000000   0.000000   0.000000   0.000000  -0.000008   0.000012
    29  H    0.000000   0.000000   0.000000  -0.000001  -0.000673   0.000025
    30  H    0.000000   0.000000   0.000000  -0.000005   0.000031   0.000000
    31  H    0.000000   0.000000   0.000000   0.000001  -0.000012  -0.000002
             19         20         21         22         23         24
     1  C    0.000000  -0.005199   0.001309  -0.005265  -0.000005   0.000000
     2  C    0.000021  -0.020747  -0.022312  -0.020967  -0.020348   0.000015
     3  C   -0.026091   0.000064  -0.000292  -0.023665  -0.020863  -0.041885
     4  C   -0.024657  -0.021030  -0.023698   0.000064   0.000053  -0.000027
     5  C    0.380704   0.001181  -0.002349  -0.002145   0.001164  -0.000203
     6  C   -0.000405   0.383344   0.381814   0.000104   0.001133   0.000002
     7  C    0.001375   0.001076   0.000275   0.380119   0.382060  -0.005538
     8  O    0.000356   0.000000   0.000001  -0.000876  -0.000831   0.258490
     9  C   -0.024736  -0.000013   0.000006   0.000109  -0.000012   0.000020
    10  C   -0.003248   0.000000   0.000000  -0.000002   0.000000   0.000002
    11  C    0.001201   0.000000  -0.000001  -0.000659   0.000005  -0.000974
    12  H    0.000000   0.000041   0.000001   0.000310   0.000008   0.000000
    13  H    0.000000   0.000074  -0.000037  -0.000132   0.000165   0.000000
    14  H    0.000000   0.000073   0.000048   0.000074  -0.000022   0.000000
    15  H    0.000002   0.000424  -0.006139   0.001853  -0.005551   0.000000
    16  H   -0.007397   0.000009  -0.000509   0.001972  -0.002323   0.003735
    17  H    0.001908  -0.002159   0.002071  -0.000363  -0.000001   0.000002
    18  H   -0.005514  -0.002471  -0.002238  -0.000001   0.000001   0.000000
    19  H    0.661357  -0.000016   0.000377   0.000002  -0.000036  -0.000039
    20  H   -0.000016   0.636621  -0.023843  -0.000017  -0.000025   0.000000
    21  H    0.000377  -0.023843   0.647868  -0.000025  -0.000017  -0.000001
    22  H    0.000002  -0.000017  -0.000025   0.649595  -0.025440   0.000733
    23  H   -0.000036  -0.000025  -0.000017  -0.025440   0.635164  -0.000031
    24  H   -0.000039   0.000000  -0.000001   0.000733  -0.000031   0.607116
    25  H   -0.002364   0.000000  -0.000001   0.000008  -0.000001  -0.000521
    26  H    0.000024   0.000001   0.000000   0.000000   0.000000   0.000000
    27  H    0.000211   0.000000   0.000000   0.000000   0.000000   0.000000
    28  H    0.000035   0.000000   0.000000   0.000000   0.000000   0.000001
    29  H   -0.000007   0.000001   0.000000  -0.000028   0.000000   0.000001
    30  H    0.000012   0.000000   0.000000  -0.000442   0.000015  -0.000419
    31  H   -0.000031   0.000000   0.000000   0.000010   0.000000   0.000018
             25         26         27         28         29         30
     1  C    0.000000   0.000000   0.000000   0.000000   0.000000   0.000000
     2  C   -0.000001   0.000000   0.000000   0.000000   0.000001   0.000003
     3  C   -0.002031  -0.000002   0.000016  -0.000012   0.000009   0.000200
     4  C    0.001087  -0.000542  -0.000041   0.000016  -0.000750   0.000046
     5  C   -0.022724  -0.001394  -0.002471   0.001154  -0.001268  -0.001635
     6  C   -0.000013   0.000004  -0.000002   0.000000  -0.000004  -0.000002
     7  C    0.000022   0.000000   0.000000   0.000000  -0.000012  -0.000649
     8  O    0.000432   0.000000   0.000000   0.000000   0.000006  -0.000534
     9  C    0.382047  -0.020350  -0.020053  -0.019891  -0.020033  -0.019932
    10  C   -0.024539   0.382312   0.382230   0.382619  -0.002457   0.001345
    11  C   -0.024522  -0.002503   0.001323  -0.002135   0.382510   0.381949
    12  H    0.000000   0.000000   0.000000   0.000000   0.000000   0.000000
    13  H    0.000000   0.000000   0.000000   0.000000   0.000000   0.000000
    14  H    0.000000   0.000000   0.000000   0.000000   0.000000   0.000000
    15  H    0.000000   0.000000   0.000000   0.000000   0.000000   0.000000
    16  H    0.000031   0.000000  -0.000001   0.000000  -0.000001  -0.000005
    17  H    0.000023  -0.000021   0.000015  -0.000008  -0.000673   0.000031
    18  H   -0.000015  -0.000686   0.000002   0.000012   0.000025   0.000000
    19  H   -0.002364   0.000024   0.000211   0.000035  -0.000007   0.000012
    20  H    0.000000   0.000001   0.000000   0.000000   0.000001   0.000000
    21  H   -0.000001   0.000000   0.000000   0.000000   0.000000   0.000000
    22  H    0.000008   0.000000   0.000000   0.000000  -0.000028  -0.000442
    23  H   -0.000001   0.000000   0.000000   0.000000   0.000000   0.000015
    24  H   -0.000521   0.000000   0.000000   0.000001   0.000001  -0.000419
    25  H    0.640332   0.001911  -0.001983  -0.002930   0.001886  -0.001937
    26  H    0.001911   0.631410  -0.021624  -0.022118   0.000368   0.000015
    27  H   -0.001983  -0.021624   0.629946  -0.021647   0.000015  -0.000037
    28  H   -0.002930  -0.022118  -0.021647   0.630781  -0.000015   0.000024
    29  H    0.001886   0.000368   0.000015  -0.000015   0.629818  -0.022176
    30  H   -0.001937   0.000015  -0.000037   0.000024  -0.022176   0.642452
    31  H   -0.002758  -0.000021   0.000031   0.000091  -0.022006  -0.022264
             31
     1  C    0.000000
     2  C    0.000000
     3  C   -0.000004
     4  C    0.000021
     5  C    0.001105
     6  C    0.000000
     7  C    0.000006
     8  O    0.000005
     9  C   -0.019911
    10  C   -0.002440
    11  C    0.382239
    12  H    0.000000
    13  H    0.000000
    14  H    0.000000
    15  H    0.000000
    16  H    0.000001
    17  H   -0.000012
    18  H   -0.000002
    19  H   -0.000031
    20  H    0.000000
    21  H    0.000000
    22  H    0.000010
    23  H    0.000000
    24  H    0.000018
    25  H   -0.002758
    26  H   -0.000021
    27  H    0.000031
    28  H    0.000091
    29  H   -0.022006
    30  H   -0.022264
    31  H    0.629400
 Mulliken atomic charges:
              1
     1  C   -0.170858
     2  C   -0.023847
     3  C    0.076004
     4  C   -0.104198
     5  C   -0.041278
     6  C   -0.101798
     7  C   -0.117142
     8  O   -0.312211
     9  C   -0.022697
    10  C   -0.172435
    11  C   -0.176026
    12  H    0.051793
    13  H    0.053874
    14  H    0.053893
    15  H    0.049087
    16  H    0.055926
    17  H    0.047073
    18  H    0.052138
    19  H    0.046955
    20  H    0.052610
    21  H    0.047692
    22  H    0.045076
    23  H    0.055737
    24  H    0.179505
    25  H    0.058562
    26  H    0.053219
    27  H    0.054068
    28  H    0.054023
    29  H    0.054791
    30  H    0.043940
    31  H    0.056523
 Sum of Mulliken atomic charges =   0.00000
 Mulliken charges with hydrogens summed into heavy atoms:
              1
     1  C   -0.011297
     2  C    0.025241
     3  C    0.131930
     4  C   -0.004987
     5  C    0.005677
     6  C   -0.001496
     7  C   -0.016329
     8  O   -0.132705
     9  C    0.035864
    10  C   -0.011125
    11  C   -0.020772
 Sum of Mulliken charges with hydrogens summed into heavy atoms =   0.00000
 Electronic spatial extent (au):  <R**2>=           2025.6449
 Charge=              0.0000 electrons
 Dipole moment (field-independent basis, Debye):
    X=             -0.4793    Y=             -0.9255    Z=              0.9508  Tot=              1.4108
 Quadrupole moment (field-independent basis, Debye-Ang):
   XX=            -67.6813   YY=            -71.1210   ZZ=            -67.3274
   XY=             -1.1729   XZ=              1.4961   YZ=              3.3033
 Traceless Quadrupole moment (field-independent basis, Debye-Ang):
   XX=              1.0286   YY=             -2.4111   ZZ=              1.3826
   XY=             -1.1729   XZ=              1.4961   YZ=              3.3033
 Octapole moment (field-independent basis, Debye-Ang**2):
  XXX=              4.9974  YYY=              2.7043  ZZZ=             -5.4785  XYY=             -3.5756
  XXY=              5.8357  XXZ=             -0.5998  XZZ=              1.5881  YZZ=              4.0827
  YYZ=              9.1554  XYZ=              2.7460
 Hexadecapole moment (field-independent basis, Debye-Ang**3):
 XXXX=          -1570.8608 YYYY=           -628.9989 ZZZZ=           -384.6535 XXXY=             12.6922
 XXXZ=              9.9078 YYYX=              3.4368 YYYZ=             19.2179 ZZZX=             -1.5335
 ZZZY=             -6.3638 XXYY=           -364.3565 XXZZ=           -328.3202 YYZZ=           -166.2431
 XXYZ=              1.7595 YYXZ=              6.2025 ZZXY=             -1.1346
 N-N= 6.980969732935D+02 E-N=-2.468029179203D+03  KE= 4.555512585002D+02
 ******************************Gaussian NBO Version 3.1******************************
             N A T U R A L   A T O M I C   O R B I T A L   A N D
          N A T U R A L   B O N D   O R B I T A L   A N A L Y S I S
 ******************************Gaussian NBO Version 3.1******************************
       /RESON  / : Allow strongly delocalized NBO set
       /NLMO   / : Form Natural Localized Molecular Orbitals
       /NMR /    : Analyze NMR Sheilding Tensor 

 Analyzing the SCF density

 Job title: comment                                                         

 Storage needed:     19864 in NPA,     23691 in NBO,     45933 in NLMO (  33549317 available)


 NATURAL POPULATIONS:  Natural atomic orbital occupancies 
                                                          
   NAO  Atom  No  lang   Type(AO)    Occupancy      Energy
 ----------------------------------------------------------
     1    C    1  S      Cor( 1S)     1.99997     -10.96727
     2    C    1  S      Val( 2S)     1.08066      -0.18445
     3    C    1  px     Val( 2p)     1.01767       0.08246
     4    C    1  py     Val( 2p)     1.02393       0.08251
     5    C    1  pz     Val( 2p)     1.00368       0.08529

     6    C    2  S      Cor( 1S)     1.99996     -10.99174
     7    C    2  S      Val( 2S)     1.08154      -0.19588
     8    C    2  px     Val( 2p)     0.97250       0.10223
     9    C    2  py     Val( 2p)     0.95797       0.10776
    10    C    2  pz     Val( 2p)     0.97243       0.10575

    11    C    3  S      Cor( 1S)     1.99989     -11.03388
    12    C    3  S      Val( 2S)     1.08790      -0.21586
    13    C    3  px     Val( 2p)     0.91567       0.10443
    14    C    3  py     Val( 2p)     0.85949       0.12286
    15    C    3  pz     Val( 2p)     0.99526       0.07748

    16    C    4  S      Cor( 1S)     1.99996     -10.97487
    17    C    4  S      Val( 2S)     1.08422      -0.18931
    18    C    4  px     Val( 2p)     0.97572       0.09820
    19    C    4  py     Val( 2p)     0.99322       0.09275
    20    C    4  pz     Val( 2p)     1.01340       0.09360

    21    C    5  S      Cor( 1S)     1.99995     -10.98492
    22    C    5  S      Val( 2S)     1.10649      -0.21190
    23    C    5  px     Val( 2p)     0.95853       0.11173
    24    C    5  py     Val( 2p)     0.95755       0.10864
    25    C    5  pz     Val( 2p)     0.99786       0.09482

    26    C    6  S      Cor( 1S)     1.99996     -10.97558
    27    C    6  S      Val( 2S)     1.08419      -0.18996
    28    C    6  px     Val( 2p)     0.97961       0.09736
    29    C    6  py     Val( 2p)     0.99483       0.09517
    30    C    6  pz     Val( 2p)     1.00574       0.09085

    31    C    7  S      Cor( 1S)     1.99996     -10.97659
    32    C    7  S      Val( 2S)     1.09355      -0.20102
    33    C    7  px     Val( 2p)     0.99407       0.08445
    34    C    7  py     Val( 2p)     1.00526       0.08441
    35    C    7  pz     Val( 2p)     1.00041       0.08903

    36    O    8  S      Cor( 1S)     1.99999     -20.14267
    37    O    8  S      Val( 2S)     1.74631      -0.99679
    38    O    8  px     Val( 2p)     1.77872      -0.29039
    39    O    8  py     Val( 2p)     1.48878      -0.17335
    40    O    8  pz     Val( 2p)     1.31868      -0.11165

    41    C    9  S      Cor( 1S)     1.99996     -10.99171
    42    C    9  S      Val( 2S)     1.08516      -0.19723
    43    C    9  px     Val( 2p)     0.96452       0.10511
    44    C    9  py     Val( 2p)     0.98603       0.10157
    45    C    9  pz     Val( 2p)     0.94640       0.11688

    46    C   10  S      Cor( 1S)     1.99997     -10.96452
    47    C   10  S      Val( 2S)     1.08138      -0.18263
    48    C   10  px     Val( 2p)     1.01418       0.08462
    49    C   10  py     Val( 2p)     1.00489       0.08830
    50    C   10  pz     Val( 2p)     1.02741       0.08464

    51    C   11  S      Cor( 1S)     1.99997     -10.96889
    52    C   11  S      Val( 2S)     1.07943      -0.18500
    53    C   11  px     Val( 2p)     1.03006       0.07723
    54    C   11  py     Val( 2p)     1.02330       0.08211
    55    C   11  pz     Val( 2p)     0.99861       0.08232

    56    H   12  S      Val( 1S)     0.96553       0.07079

    57    H   13  S      Val( 1S)     0.96354       0.07194

    58    H   14  S      Val( 1S)     0.96355       0.07299

    59    H   15  S      Val( 1S)     0.97555       0.06547

    60    H   16  S      Val( 1S)     0.97935       0.05822

    61    H   17  S      Val( 1S)     0.97422       0.07093

    62    H   18  S      Val( 1S)     0.96871       0.07159

    63    H   19  S      Val( 1S)     0.97857       0.06867

    64    H   20  S      Val( 1S)     0.96812       0.07014

    65    H   21  S      Val( 1S)     0.97307       0.06837

    66    H   22  S      Val( 1S)     0.97510       0.06178

    67    H   23  S      Val( 1S)     0.96481       0.06831

    68    H   24  S      Val( 1S)     0.80833       0.08106

    69    H   25  S      Val( 1S)     0.96770       0.07495

    70    H   26  S      Val( 1S)     0.96448       0.07506

    71    H   27  S      Val( 1S)     0.96349       0.07593

    72    H   28  S      Val( 1S)     0.96335       0.07457

    73    H   29  S      Val( 1S)     0.96258       0.07304

    74    H   30  S      Val( 1S)     0.97266       0.06671

    75    H   31  S      Val( 1S)     0.96056       0.07201


 Summary of Natural Population Analysis:                  
                                                          
                                       Natural Population 
                Natural  -----------------------------------------------
    Atom  No    Charge         Core      Valence    Rydberg      Total
 -----------------------------------------------------------------------
      C    1   -0.12591      1.99997     4.12593    0.00000     6.12591
      C    2    0.01560      1.99996     3.98444    0.00000     5.98440
      C    3    0.14179      1.99989     3.85832    0.00000     5.85821
      C    4   -0.06651      1.99996     4.06655    0.00000     6.06651
      C    5   -0.02037      1.99995     4.02042    0.00000     6.02037
      C    6   -0.06433      1.99996     4.06437    0.00000     6.06433
      C    7   -0.09326      1.99996     4.09329    0.00000     6.09326
      O    8   -0.33248      1.99999     6.33249    0.00000     8.33248
      C    9    0.01792      1.99996     3.98212    0.00000     5.98208
      C   10   -0.12784      1.99997     4.12787    0.00000     6.12784
      C   11   -0.13136      1.99997     4.13139    0.00000     6.13136
      H   12    0.03447      0.00000     0.96553    0.00000     0.96553
      H   13    0.03646      0.00000     0.96354    0.00000     0.96354
      H   14    0.03645      0.00000     0.96355    0.00000     0.96355
      H   15    0.02445      0.00000     0.97555    0.00000     0.97555
      H   16    0.02065      0.00000     0.97935    0.00000     0.97935
      H   17    0.02578      0.00000     0.97422    0.00000     0.97422
      H   18    0.03129      0.00000     0.96871    0.00000     0.96871
      H   19    0.02143      0.00000     0.97857    0.00000     0.97857
      H   20    0.03188      0.00000     0.96812    0.00000     0.96812
      H   21    0.02693      0.00000     0.97307    0.00000     0.97307
      H   22    0.02490      0.00000     0.97510    0.00000     0.97510
      H   23    0.03519      0.00000     0.96481    0.00000     0.96481
      H   24    0.19167      0.00000     0.80833    0.00000     0.80833
      H   25    0.03230      0.00000     0.96770    0.00000     0.96770
      H   26    0.03552      0.00000     0.96448    0.00000     0.96448
      H   27    0.03651      0.00000     0.96349    0.00000     0.96349
      H   28    0.03665      0.00000     0.96335    0.00000     0.96335
      H   29    0.03742      0.00000     0.96258    0.00000     0.96258
      H   30    0.02734      0.00000     0.97266    0.00000     0.97266
      H   31    0.03944      0.00000     0.96056    0.00000     0.96056
 =======================================================================
   * Total *    0.00000     21.99954    66.00046    0.00000    88.00000

                                 Natural Population      
 --------------------------------------------------------
   Core                      21.99954 ( 99.9979% of  22)
   Valence                   66.00046 (100.0007% of  66)
   Natural Minimal Basis     88.00000 (100.0000% of  88)
   Natural Rydberg Basis      0.00000 (  0.0000% of  88)
 --------------------------------------------------------

    Atom  No          Natural Electron Configuration
 ----------------------------------------------------------------------------
      C    1      [core]2S( 1.08)2p( 3.05)
      C    2      [core]2S( 1.08)2p( 2.90)
      C    3      [core]2S( 1.09)2p( 2.77)
      C    4      [core]2S( 1.08)2p( 2.98)
      C    5      [core]2S( 1.11)2p( 2.91)
      C    6      [core]2S( 1.08)2p( 2.98)
      C    7      [core]2S( 1.09)2p( 3.00)
      O    8      [core]2S( 1.75)2p( 4.59)
      C    9      [core]2S( 1.09)2p( 2.90)
      C   10      [core]2S( 1.08)2p( 3.05)
      C   11      [core]2S( 1.08)2p( 3.05)
      H   12            1S( 0.97)
      H   13            1S( 0.96)
      H   14            1S( 0.96)
      H   15            1S( 0.98)
      H   16            1S( 0.98)
      H   17            1S( 0.97)
      H   18            1S( 0.97)
      H   19            1S( 0.98)
      H   20            1S( 0.97)
      H   21            1S( 0.97)
      H   22            1S( 0.98)
      H   23            1S( 0.96)
      H   24            1S( 0.81)
      H   25            1S( 0.97)
      H   26            1S( 0.96)
      H   27            1S( 0.96)
      H   28            1S( 0.96)
      H   29            1S( 0.96)
      H   30            1S( 0.97)
      H   31            1S( 0.96)


 NATURAL BOND ORBITAL ANALYSIS:

                       Occupancies       Lewis Structure    Low   High
           Occ.    -------------------  -----------------   occ   occ
  Cycle   Thresh.   Lewis   Non-Lewis     CR  BD  3C  LP    (L)   (NL)   Dev
 =============================================================================
   1(1)    1.90    87.63623   0.36377     11  31   0   2     0      0    0.02
 -----------------------------------------------------------------------------

 Structure accepted: No low occupancy Lewis orbitals

 --------------------------------------------------------
   Core                     21.99954 ( 99.998% of  22)
   Valence Lewis            65.63669 ( 99.450% of  66)
  ==================       ============================
   Total Lewis              87.63623 ( 99.587% of  88)
  -----------------------------------------------------
   Valence non-Lewis         0.36377 (  0.413% of  88)
   Rydberg non-Lewis         0.00000 (  0.000% of  88)
  ==================       ============================
   Total non-Lewis           0.36377 (  0.413% of  88)
 --------------------------------------------------------


       (Occupancy)   Bond orbital/ Coefficients/ Hybrids
 ---------------------------------------------------------------------------------
     1. (1.99030) BD ( 1) C   1 - C   2  
                ( 50.88%)   0.7133* C   1 s( 25.72%)p 2.89( 74.28%)
                                            0.0001  0.5071  0.4377  0.2660 -0.6932
                ( 49.12%)   0.7009* C   2 s( 24.97%)p 3.00( 75.03%)
                                            0.0000  0.4997 -0.4124 -0.2806  0.7081
     2. (1.99513) BD ( 1) C   1 - H  12  
                ( 51.76%)   0.7195* C   1 s( 24.82%)p 3.03( 75.18%)
                                            0.0000  0.4982  0.5476 -0.3416  0.5790
                ( 48.24%)   0.6945* H  12 s(100.00%)
                                            1.0000
     3. (1.99504) BD ( 1) C   1 - H  13  
                ( 51.83%)   0.7200* C   1 s( 24.75%)p 3.04( 75.25%)
                                            0.0000  0.4975 -0.4144  0.6716  0.3601
                ( 48.17%)   0.6940* H  13 s(100.00%)
                                            1.0000
     4. (1.99490) BD ( 1) C   1 - H  14  
                ( 51.83%)   0.7200* C   1 s( 24.71%)p 3.05( 75.29%)
                                            0.0000  0.4971 -0.5804 -0.6012 -0.2335
                ( 48.17%)   0.6940* H  14 s(100.00%)
                                            1.0000
     5. (1.98553) BD ( 1) C   2 - C   6  
                ( 49.74%)   0.7052* C   2 s( 25.33%)p 2.95( 74.67%)
                                            0.0000  0.5032  0.4299 -0.6551 -0.3644
                ( 50.26%)   0.7090* C   6 s( 25.34%)p 2.95( 74.66%)
                                            0.0001  0.5034 -0.3951  0.6522  0.4063
     6. (1.98340) BD ( 1) C   2 - C   7  
                ( 49.27%)   0.7020* C   2 s( 25.26%)p 2.96( 74.74%)
                                            0.0000  0.5026  0.5528  0.6285  0.2162
                ( 50.73%)   0.7122* C   7 s( 25.60%)p 2.91( 74.40%)
                                            0.0001  0.5060 -0.5189 -0.6533 -0.2191
     7. (1.98625) BD ( 1) C   2 - H  15  
                ( 51.14%)   0.7151* C   2 s( 24.44%)p 3.09( 75.56%)
                                            0.0000  0.4943 -0.5828  0.3115 -0.5648
                ( 48.86%)   0.6990* H  15 s(100.00%)
                                            1.0000
     8. (1.98240) BD ( 1) C   3 - C   5  
                ( 49.99%)   0.7070* C   3 s( 26.00%)p 2.85( 74.00%)
                                            0.0001  0.5099  0.5003 -0.6977  0.0544
                ( 50.01%)   0.7072* C   5 s( 25.35%)p 2.94( 74.65%)
                                            0.0000  0.5035 -0.4773  0.7178  0.0592
     9. (1.98821) BD ( 1) C   3 - C   7  
                ( 49.28%)   0.7020* C   3 s( 25.44%)p 2.93( 74.56%)
                                            0.0001  0.5044 -0.6537 -0.0563  0.5613
                ( 50.72%)   0.7122* C   7 s( 25.15%)p 2.98( 74.85%)
                                            0.0000  0.5015  0.6686  0.0410 -0.5475
    10. (1.98795) BD ( 1) C   3 - O   8  
                ( 41.14%)   0.6414* C   3 s( 22.95%)p 3.36( 77.05%)
                                            0.0000  0.4790  0.4786  0.7087  0.1980
                ( 58.86%)   0.7672* O   8 s( 16.70%)p 4.99( 83.30%)
                                            0.0000  0.4087 -0.4792 -0.7724 -0.0817
    11. (1.98709) BD ( 1) C   3 - H  16  
                ( 51.15%)   0.7152* C   3 s( 25.61%)p 2.90( 74.39%)
                                           -0.0001  0.5060 -0.3056  0.0882 -0.8017
                ( 48.85%)   0.6989* H  16 s(100.00%)
                                            1.0000
    12. (1.98444) BD ( 1) C   4 - C   5  
                ( 50.48%)   0.7105* C   4 s( 25.34%)p 2.95( 74.66%)
                                            0.0001  0.5034  0.4544  0.7130 -0.1779
                ( 49.52%)   0.7037* C   5 s( 25.42%)p 2.93( 74.58%)
                                            0.0000  0.5042 -0.4722 -0.6864  0.2275
    13. (1.98983) BD ( 1) C   4 - C   6  
                ( 49.97%)   0.7069* C   4 s( 25.13%)p 2.98( 74.87%)
                                            0.0000  0.5013 -0.8147  0.0966 -0.2750
                ( 50.03%)   0.7073* C   6 s( 25.17%)p 2.97( 74.83%)
                                            0.0000  0.5017  0.8158 -0.0672  0.2796
    14. (1.99002) BD ( 1) C   4 - H  17  
                ( 51.34%)   0.7165* C   4 s( 24.62%)p 3.06( 75.38%)
                                            0.0000  0.4962 -0.0003 -0.1362  0.8575
                ( 48.66%)   0.6976* H  17 s(100.00%)
                                            1.0000
    15. (1.99020) BD ( 1) C   4 - H  18  
                ( 51.53%)   0.7179* C   4 s( 24.90%)p 3.02( 75.10%)
                                            0.0000  0.4990  0.3603 -0.6810 -0.3968
                ( 48.47%)   0.6962* H  18 s(100.00%)
                                            1.0000
    16. (1.97921) BD ( 1) C   5 - C   9  
                ( 50.10%)   0.7078* C   5 s( 25.82%)p 2.87( 74.18%)
                                            0.0001  0.5081  0.6942  0.0634  0.5059
                ( 49.90%)   0.7064* C   9 s( 25.41%)p 2.94( 74.59%)
                                            0.0001  0.5041 -0.7533 -0.0656 -0.4172
    17. (1.98515) BD ( 1) C   5 - H  19  
                ( 50.95%)   0.7138* C   5 s( 23.41%)p 3.27( 76.59%)
                                            0.0000  0.4838  0.2597 -0.0983 -0.8300
                ( 49.05%)   0.7004* H  19 s(100.00%)
                                            1.0000
    18. (1.98991) BD ( 1) C   6 - H  20  
                ( 51.58%)   0.7182* C   6 s( 25.24%)p 2.96( 74.76%)
                                            0.0000  0.5024 -0.4222 -0.7389  0.1529
                ( 48.42%)   0.6959* H  20 s(100.00%)
                                            1.0000
    19. (1.99116) BD ( 1) C   6 - H  21  
                ( 51.35%)   0.7166* C   6 s( 24.24%)p 3.13( 75.76%)
                                            0.0000  0.4924  0.0035  0.1556 -0.8564
                ( 48.65%)   0.6975* H  21 s(100.00%)
                                            1.0000
    20. (1.98935) BD ( 1) C   7 - H  22  
                ( 51.28%)   0.7161* C   7 s( 24.43%)p 3.09( 75.57%)
                                            0.0000  0.4943  0.2978 -0.1244  0.8072
                ( 48.72%)   0.6980* H  22 s(100.00%)
                                            1.0000
    21. (1.98973) BD ( 1) C   7 - H  23  
                ( 51.72%)   0.7192* C   7 s( 24.81%)p 3.03( 75.19%)
                                            0.0000  0.4981 -0.4416  0.7457 -0.0271
                ( 48.28%)   0.6948* H  23 s(100.00%)
                                            1.0000
    22. (1.98905) BD ( 1) O   8 - H  24  
                ( 59.66%)   0.7724* O   8 s( 16.97%)p 4.89( 83.03%)
                                            0.0000  0.4119  0.0808  0.0721  0.9048
                ( 40.34%)   0.6352* H  24 s(100.00%)
                                            1.0000
    23. (1.98841) BD ( 1) C   9 - C  10  
                ( 49.09%)   0.7006* C   9 s( 24.90%)p 3.02( 75.10%)
                                            0.0000  0.4990  0.4828 -0.7020 -0.1586
                ( 50.91%)   0.7135* C  10 s( 25.70%)p 2.89( 74.30%)
                                            0.0001  0.5069 -0.5195  0.6701  0.1553
    24. (1.99033) BD ( 1) C   9 - C  11  
                ( 48.69%)   0.6978* C   9 s( 25.20%)p 2.97( 74.80%)
                                            0.0000  0.5020 -0.1411  0.0676  0.8506
                ( 51.31%)   0.7163* C  11 s( 26.02%)p 2.84( 73.98%)
                                            0.0001  0.5101  0.0886 -0.0826 -0.8515
    25. (1.98394) BD ( 1) C   9 - H  25  
                ( 51.52%)   0.7177* C   9 s( 24.50%)p 3.08( 75.50%)
                                            0.0000  0.4950  0.4236  0.7060 -0.2779
                ( 48.48%)   0.6963* H  25 s(100.00%)
                                            1.0000
    26. (1.99569) BD ( 1) C  10 - H  26  
                ( 51.84%)   0.7200* C  10 s( 24.86%)p 3.02( 75.14%)
                                            0.0000  0.4986 -0.3568 -0.7260  0.3115
                ( 48.16%)   0.6940* H  26 s(100.00%)
                                            1.0000
    27. (1.99504) BD ( 1) C  10 - H  27  
                ( 51.84%)   0.7200* C  10 s( 24.74%)p 3.04( 75.26%)
                                            0.0000  0.4974  0.1207 -0.0845 -0.8549
                ( 48.16%)   0.6939* H  27 s(100.00%)
                                            1.0000
    28. (1.99472) BD ( 1) C  10 - H  28  
                ( 51.83%)   0.7199* C  10 s( 24.70%)p 3.05( 75.30%)
                                            0.0000  0.4970  0.7670  0.1295  0.3847
                ( 48.17%)   0.6940* H  28 s(100.00%)
                                            1.0000
    29. (1.99442) BD ( 1) C  11 - H  29  
                ( 51.92%)   0.7205* C  11 s( 24.84%)p 3.03( 75.16%)
                                            0.0000  0.4984 -0.3739 -0.7099  0.3285
                ( 48.08%)   0.6934* H  29 s(100.00%)
                                            1.0000
    30. (1.99285) BD ( 1) C  11 - H  30  
                ( 51.38%)   0.7168* C  11 s( 24.76%)p 3.04( 75.24%)
                                            0.0000  0.4976 -0.4918  0.6916  0.1798
                ( 48.62%)   0.6973* H  30 s(100.00%)
                                            1.0000
    31. (1.99420) BD ( 1) C  11 - H  31  
                ( 51.96%)   0.7208* C  11 s( 24.38%)p 3.10( 75.62%)
                                            0.0000  0.4938  0.7814  0.1050  0.3670
                ( 48.04%)   0.6931* H  31 s(100.00%)
                                            1.0000
    32. (1.99997) CR ( 1) C   1           s(100.00%)
                                            1.0000  0.0000  0.0000  0.0000  0.0001
    33. (1.99996) CR ( 1) C   2           s(100.00%)
                                            1.0000  0.0000 -0.0001  0.0000  0.0000
    34. (1.99989) CR ( 1) C   3           s(100.00%)
                                            1.0000  0.0000  0.0000  0.0001 -0.0001
    35. (1.99996) CR ( 1) C   4           s(100.00%)
                                            1.0000  0.0000  0.0000 -0.0001  0.0000
    36. (1.99995) CR ( 1) C   5           s(100.00%)
                                            1.0000  0.0000  0.0000  0.0000 -0.0001
    37. (1.99996) CR ( 1) C   6           s(100.00%)
                                            1.0000  0.0000  0.0000 -0.0001  0.0000
    38. (1.99996) CR ( 1) C   7           s(100.00%)
                                            1.0000  0.0000  0.0000  0.0001  0.0000
    39. (1.99999) CR ( 1) O   8           s(100.00%)
                                            1.0000  0.0000  0.0000  0.0000  0.0000
    40. (1.99996) CR ( 1) C   9           s(100.00%)
                                            1.0000  0.0000  0.0001  0.0000  0.0000
    41. (1.99997) CR ( 1) C  10           s(100.00%)
                                            1.0000  0.0000  0.0001 -0.0001  0.0000
    42. (1.99996) CR ( 1) C  11           s(100.00%)
                                            1.0000  0.0000  0.0000  0.0000  0.0001
    43. (1.99261) LP ( 1) O   8           s( 66.33%)p 0.51( 33.67%)
                                            0.0000  0.8144  0.1991  0.3514 -0.4166
    44. (1.97020) LP ( 2) O   8           s(  0.00%)p 1.00(100.00%)
                                            0.0000  0.0004  0.8510 -0.5241 -0.0344
    45. (0.00957) BD*( 1) C   1 - C   2  
                ( 49.12%)   0.7009* C   1 s( 25.72%)p 2.89( 74.28%)
                                           -0.0001 -0.5071 -0.4377 -0.2660  0.6932
                ( 50.88%)  -0.7133* C   2 s( 24.97%)p 3.00( 75.03%)
                                            0.0000 -0.4997  0.4124  0.2806 -0.7081
    46. (0.00601) BD*( 1) C   1 - H  12  
                ( 48.24%)   0.6945* C   1 s( 24.82%)p 3.03( 75.18%)
                                            0.0000 -0.4982 -0.5476  0.3416 -0.5790
                ( 51.76%)  -0.7195* H  12 s(100.00%)
                                           -1.0000
    47. (0.00506) BD*( 1) C   1 - H  13  
                ( 48.17%)   0.6940* C   1 s( 24.75%)p 3.04( 75.25%)
                                            0.0000 -0.4975  0.4144 -0.6716 -0.3601
                ( 51.83%)  -0.7200* H  13 s(100.00%)
                                           -1.0000
    48. (0.00515) BD*( 1) C   1 - H  14  
                ( 48.17%)   0.6940* C   1 s( 24.71%)p 3.05( 75.29%)
                                            0.0000 -0.4971  0.5804  0.6012  0.2335
                ( 51.83%)  -0.7200* H  14 s(100.00%)
                                           -1.0000
    49. (0.01694) BD*( 1) C   2 - C   6  
                ( 50.26%)   0.7090* C   2 s( 25.33%)p 2.95( 74.67%)
                                            0.0000  0.5032  0.4299 -0.6551 -0.3644
                ( 49.74%)  -0.7052* C   6 s( 25.34%)p 2.95( 74.66%)
                                            0.0001  0.5034 -0.3951  0.6522  0.4063
    50. (0.01555) BD*( 1) C   2 - C   7  
                ( 50.73%)   0.7122* C   2 s( 25.26%)p 2.96( 74.74%)
                                            0.0000  0.5026  0.5528  0.6285  0.2162
                ( 49.27%)  -0.7020* C   7 s( 25.60%)p 2.91( 74.40%)
                                            0.0001  0.5060 -0.5189 -0.6533 -0.2191
    51. (0.00992) BD*( 1) C   2 - H  15  
                ( 48.86%)   0.6990* C   2 s( 24.44%)p 3.09( 75.56%)
                                            0.0000 -0.4943  0.5828 -0.3115  0.5648
                ( 51.14%)  -0.7151* H  15 s(100.00%)
                                           -1.0000
    52. (0.03851) BD*( 1) C   3 - C   5  
                ( 50.01%)   0.7072* C   3 s( 26.00%)p 2.85( 74.00%)
                                            0.0001  0.5099  0.5003 -0.6977  0.0544
                ( 49.99%)  -0.7070* C   5 s( 25.35%)p 2.94( 74.65%)
                                            0.0000  0.5035 -0.4773  0.7178  0.0592
    53. (0.02528) BD*( 1) C   3 - C   7  
                ( 50.72%)   0.7122* C   3 s( 25.44%)p 2.93( 74.56%)
                                            0.0001  0.5044 -0.6537 -0.0563  0.5613
                ( 49.28%)  -0.7020* C   7 s( 25.15%)p 2.98( 74.85%)
                                            0.0000  0.5015  0.6686  0.0410 -0.5475
    54. (0.02178) BD*( 1) C   3 - O   8  
                ( 58.86%)   0.7672* C   3 s( 22.95%)p 3.36( 77.05%)
                                            0.0000  0.4790  0.4786  0.7087  0.1980
                ( 41.14%)  -0.6414* O   8 s( 16.70%)p 4.99( 83.30%)
                                            0.0000  0.4087 -0.4792 -0.7724 -0.0817
    55. (0.01702) BD*( 1) C   3 - H  16  
                ( 48.85%)   0.6989* C   3 s( 25.61%)p 2.90( 74.39%)
                                            0.0001 -0.5060  0.3056 -0.0882  0.8017
                ( 51.15%)  -0.7152* H  16 s(100.00%)
                                           -1.0000
    56. (0.01684) BD*( 1) C   4 - C   5  
                ( 49.52%)   0.7037* C   4 s( 25.34%)p 2.95( 74.66%)
                                           -0.0001 -0.5034 -0.4544 -0.7130  0.1779
                ( 50.48%)  -0.7105* C   5 s( 25.42%)p 2.93( 74.58%)
                                            0.0000 -0.5042  0.4722  0.6864 -0.2275
    57. (0.01075) BD*( 1) C   4 - C   6  
                ( 50.03%)   0.7073* C   4 s( 25.13%)p 2.98( 74.87%)
                                            0.0000  0.5013 -0.8147  0.0966 -0.2750
                ( 49.97%)  -0.7069* C   6 s( 25.17%)p 2.97( 74.83%)
                                            0.0000  0.5017  0.8158 -0.0672  0.2796
    58. (0.01145) BD*( 1) C   4 - H  17  
                ( 48.66%)   0.6976* C   4 s( 24.62%)p 3.06( 75.38%)
                                            0.0000 -0.4962  0.0003  0.1362 -0.8575
                ( 51.34%)  -0.7165* H  17 s(100.00%)
                                           -1.0000
    59. (0.00792) BD*( 1) C   4 - H  18  
                ( 48.47%)   0.6962* C   4 s( 24.90%)p 3.02( 75.10%)
                                            0.0000 -0.4990 -0.3603  0.6810  0.3968
                ( 51.53%)  -0.7179* H  18 s(100.00%)
                                           -1.0000
    60. (0.02183) BD*( 1) C   5 - C   9  
                ( 49.90%)   0.7064* C   5 s( 25.82%)p 2.87( 74.18%)
                                           -0.0001 -0.5081 -0.6942 -0.0634 -0.5059
                ( 50.10%)  -0.7078* C   9 s( 25.41%)p 2.94( 74.59%)
                                           -0.0001 -0.5041  0.7533  0.0656  0.4172
    61. (0.00949) BD*( 1) C   5 - H  19  
                ( 49.05%)   0.7004* C   5 s( 23.41%)p 3.27( 76.59%)
                                            0.0000 -0.4838 -0.2597  0.0983  0.8300
                ( 50.95%)  -0.7138* H  19 s(100.00%)
                                           -1.0000
    62. (0.00874) BD*( 1) C   6 - H  20  
                ( 48.42%)   0.6959* C   6 s( 25.24%)p 2.96( 74.76%)
                                            0.0000 -0.5024  0.4222  0.7389 -0.1529
                ( 51.58%)  -0.7182* H  20 s(100.00%)
                                           -1.0000
    63. (0.00846) BD*( 1) C   6 - H  21  
                ( 48.65%)   0.6975* C   6 s( 24.24%)p 3.13( 75.76%)
                                            0.0000 -0.4924 -0.0035 -0.1556  0.8564
                ( 51.35%)  -0.7166* H  21 s(100.00%)
                                           -1.0000
    64. (0.01144) BD*( 1) C   7 - H  22  
                ( 48.72%)   0.6980* C   7 s( 24.43%)p 3.09( 75.57%)
                                            0.0000 -0.4943 -0.2978  0.1244 -0.8072
                ( 51.28%)  -0.7161* H  22 s(100.00%)
                                           -1.0000
    65. (0.00807) BD*( 1) C   7 - H  23  
                ( 48.28%)   0.6948* C   7 s( 24.81%)p 3.03( 75.19%)
                                            0.0000 -0.4981  0.4416 -0.7457  0.0271
                ( 51.72%)  -0.7192* H  23 s(100.00%)
                                           -1.0000
    66. (0.00990) BD*( 1) O   8 - H  24  
                ( 40.34%)   0.6352* O   8 s( 16.97%)p 4.89( 83.03%)
                                            0.0000 -0.4119 -0.0808 -0.0721 -0.9048
                ( 59.66%)  -0.7724* H  24 s(100.00%)
                                           -1.0000
    67. (0.00993) BD*( 1) C   9 - C  10  
                ( 50.91%)   0.7135* C   9 s( 24.90%)p 3.02( 75.10%)
                                            0.0000  0.4990  0.4828 -0.7020 -0.1586
                ( 49.09%)  -0.7006* C  10 s( 25.70%)p 2.89( 74.30%)
                                            0.0001  0.5069 -0.5195  0.6701  0.1553
    68. (0.01136) BD*( 1) C   9 - C  11  
                ( 51.31%)   0.7163* C   9 s( 25.20%)p 2.97( 74.80%)
                                            0.0000  0.5020 -0.1411  0.0676  0.8506
                ( 48.69%)  -0.6978* C  11 s( 26.02%)p 2.84( 73.98%)
                                            0.0001  0.5101  0.0886 -0.0826 -0.8515
    69. (0.01128) BD*( 1) C   9 - H  25  
                ( 48.48%)   0.6963* C   9 s( 24.50%)p 3.08( 75.50%)
                                            0.0000 -0.4950 -0.4236 -0.7060  0.2779
                ( 51.52%)  -0.7177* H  25 s(100.00%)
                                           -1.0000
    70. (0.00636) BD*( 1) C  10 - H  26  
                ( 48.16%)   0.6940* C  10 s( 24.86%)p 3.02( 75.14%)
                                            0.0000 -0.4986  0.3568  0.7260 -0.3115
                ( 51.84%)  -0.7200* H  26 s(100.00%)
                                           -1.0000
    71. (0.00529) BD*( 1) C  10 - H  27  
                ( 48.16%)   0.6939* C  10 s( 24.74%)p 3.04( 75.26%)
                                            0.0000 -0.4974 -0.1207  0.0845  0.8549
                ( 51.84%)  -0.7200* H  27 s(100.00%)
                                           -1.0000
    72. (0.00486) BD*( 1) C  10 - H  28  
[...]

 Contributions to Isotropic shielding for atom    8 (   360.7255 ppm):
                         Standard Origin              Atomic Origin
 NLMO      Total    Paramagnetic  Diamagnetic   Paramagnetic  Diamagnetic
    6      -1.2345       -1.4722       0.2377        -1.2923       0.0578
    9      -1.4717       -1.2162      -0.2555        -2.1735       0.7018
   10      21.9572        5.7803      16.1769        11.4592      10.4980
   11       1.0306        0.6472       0.3833        -0.2616       1.2922
   16      -0.1919       -0.2805       0.0885        -1.2561       1.0641
   21      -0.2112       -0.6088       0.3976        -1.1770       0.9658
   22      25.1487       10.9942      14.1545        10.5968      14.5520
   39     271.1817       -0.0066     271.1883        -0.0024     271.1841
   43      32.8862        3.3107      29.5755        -4.5314      37.4176
   44      10.1202      -28.3691      38.4893       -29.6967      39.8169
 Sum      359.2152      -11.2209     370.4361       -18.3352     377.5504

 Contributions to Isotropic shielding for atom    9 (   215.1380 ppm):
                         Standard Origin              Atomic Origin
 NLMO      Total    Paramagnetic  Diamagnetic   Paramagnetic  Diamagnetic
   10      -0.0751       -0.4656       0.3905        -1.2881       1.2130
   16       5.1854       -8.8404      14.0258        -2.5412       7.7266
   23      -1.5558       -4.0631       2.5074        -9.0860       7.5302
   24       0.4959       -6.7370       7.2329        -6.8689       7.3648
   25       5.7963       -1.0051       6.8014        -5.2727      11.0690
   26       1.0643       -0.3623       1.4266         0.0433       1.0210
   27       0.7106       -0.5886       1.2993        -0.3259       1.0365
   28       0.6459       -0.3892       1.0351        -0.3830       1.0289
   29       0.8450       -0.2101       1.0551        -0.1707       1.0157
   30       0.5547       -0.5372       1.0918        -0.4421       0.9967
   31       0.5828       -0.1180       0.7007        -0.4518       1.0346
   40     199.9233       -0.0019     199.9251         0.0027     199.9205
 Sum      214.1733      -23.3184     237.4917       -26.7843     240.9576

 Contributions to Isotropic shielding for atom   10 (   220.8799 ppm):
                         Standard Origin              Atomic Origin
 NLMO      Total    Paramagnetic  Diamagnetic   Paramagnetic  Diamagnetic
   23       4.5679      -11.6305      16.1985        -3.3906       7.9585
   24      -0.4917        0.0307      -0.5224        -1.1949       0.7032
   25       0.3310        0.1969       0.1341        -0.7158       1.0468
   26       6.1864       -4.9313      11.1177        -4.9527      11.1391
   27       5.2173       -2.9456       8.1629        -5.9061      11.1234
   28       4.9077        2.0016       2.9061        -6.2075      11.1152
   41     200.0741       -0.0039     200.0780         0.0023     200.0717
 Sum      220.7927      -17.2821     238.0748       -22.3652     243.1579

 Contributions to Isotropic shielding for atom   11 (   223.9489 ppm):
                         Standard Origin              Atomic Origin
 NLMO      Total    Paramagnetic  Diamagnetic   Paramagnetic  Diamagnetic
   24       3.2806       -8.8765      12.1571        -4.8628       8.1433
   25       0.3645       -0.1290       0.4935        -0.6462       1.0107
   29       6.9769       -4.4930      11.4699        -4.1796      11.1565
   30       6.9010       -5.3544      12.2555        -4.0394      10.9405
   31       5.8917        2.6648       3.2269        -5.2273      11.1191
   42     200.0758       -0.0017     200.0775         0.0012     200.0746
 Sum      223.4905      -16.1899     239.6804       -18.9541     242.4446

 Contributions to Isotropic shielding for atom   12 (    32.6754 ppm):
                         Standard Origin              Atomic Origin
 NLMO      Total    Paramagnetic  Diamagnetic   Paramagnetic  Diamagnetic
    1       1.6958       -1.3934       3.0891         0.8140       0.8818
    2      26.3337        0.3842      25.9495         0.3862      25.9475
    3       1.9798        1.0946       0.8852         0.1587       1.8211
    4       1.9198        1.4202       0.4997         0.0976       1.8223
   20      -0.2511       -0.0472      -0.2039        -1.0285       0.7774
 Sum       31.6780        1.4584      30.2196         0.4280      31.2500

 Contributions to Isotropic shielding for atom   13 (    32.4987 ppm):
                         Standard Origin              Atomic Origin
 NLMO      Total    Paramagnetic  Diamagnetic   Paramagnetic  Diamagnetic
    1       1.3737       -0.1693       1.5430         0.3881       0.9856
    2       2.0528        0.7557       1.2971         0.2196       1.8332
    3      26.3445        0.1519      26.1926         0.4324      25.9121
    4       1.8230        2.3934      -0.5703        -0.0122       1.8352
    6      -0.0929        0.4221      -0.5150        -1.0677       0.9748
 Sum       31.5011        3.5537      27.9474        -0.0397      31.5409

 Contributions to Isotropic shielding for atom   14 (    32.5509 ppm):
                         Standard Origin              Atomic Origin
 NLMO      Total    Paramagnetic  Diamagnetic   Paramagnetic  Diamagnetic
    1       1.2723        0.1509       1.1215         0.2961       0.9763
    2       2.0069        1.0089       0.9980         0.1650       1.8419
    3       1.9230        2.3835      -0.4605         0.0772       1.8458
    4      26.3904        0.1160      26.2744         0.4761      25.9144
    5      -0.1308        0.5211      -0.6519        -1.0316       0.9008
 Sum       31.4619        4.1804      27.2815        -0.0173      31.4792

 Contributions to Isotropic shielding for atom   15 (    32.3409 ppm):
                         Standard Origin              Atomic Origin
 NLMO      Total    Paramagnetic  Diamagnetic   Paramagnetic  Diamagnetic
    1       0.7933        2.4046      -1.6113        -0.2133       1.0066
    5       1.1875        1.1122       0.0753         0.1387       1.0488
    6       1.3676        0.8191       0.5485         0.4201       0.9475
    7      26.4991       -0.2843      26.7834         0.4746      26.0245
   19      -0.0491       -0.1807       0.1316        -1.1840       1.1349
   21      -0.0347        0.0303      -0.0650        -1.1170       1.0823
 Sum       29.7637        3.9013      25.8625        -1.4808      31.2446

 Contributions to Isotropic shielding for atom   16 (    31.3113 ppm):
                         Standard Origin              Atomic Origin
 NLMO      Total    Paramagnetic  Diamagnetic   Paramagnetic  Diamagnetic
    8       1.1283        0.1669       0.9614         0.0490       1.0793
   10       0.7986        1.1509      -0.3523        -1.3178       2.1164
   11      26.4188        0.2789      26.1399         0.7537      25.6652
   17      -0.1268       -0.4200       0.2932        -1.2788       1.1520
 Sum       28.2189        1.1768      27.0422        -1.7939      30.0129

 Contributions to Isotropic shielding for atom   17 (    32.9135 ppm):
                         Standard Origin              Atomic Origin
 NLMO      Total    Paramagnetic  Diamagnetic   Paramagnetic  Diamagnetic
    2      -0.2290       -1.0301       0.8010        -0.7828       0.5538
   12       1.4093       -0.0255       1.4348         0.5266       0.8827
   13       1.1084        0.6926       0.4158         0.1339       0.9744
   14      26.4697        0.1896      26.2800         0.3890      26.0807
   15       2.0492        1.3971       0.6521         0.2819       1.7674
   16      -0.1433       -0.2403       0.0970        -1.0646       0.9213
   24      -0.0153       -0.6004       0.5851        -1.0073       0.9920
   26      -0.1702       -1.0713       0.9011        -0.7790       0.6088
   29      -0.3907       -1.2844       0.8937        -0.9594       0.5687
 Sum       30.0880       -1.9727      32.0606        -3.2616      33.3495

 Contributions to Isotropic shielding for atom   18 (    32.5361 ppm):
                         Standard Origin              Atomic Origin
 NLMO      Total    Paramagnetic  Diamagnetic   Paramagnetic  Diamagnetic
   12       1.2921        0.6569       0.6352         0.2793       1.0128
   13       1.0246        1.4557      -0.4311         0.0176       1.0070
   14       2.1358        1.1316       1.0042         0.3754       1.7604
   15      26.3910       -0.0094      26.4004         0.4447      25.9463
   17       0.0196       -0.1503       0.1699        -0.9923       1.0119
   26      -0.2343       -1.1538       0.9195        -0.9327       0.6984
 Sum       30.6288        1.9308      28.6980        -0.8080      31.4367

 Contributions to Isotropic shielding for atom   19 (    32.0289 ppm):
                         Standard Origin              Atomic Origin
 NLMO      Total    Paramagnetic  Diamagnetic   Paramagnetic  Diamagnetic
    8       1.1397        1.0169       0.1228        -0.0181       1.1578
   11      -0.1465       -0.6719       0.5254        -1.3144       1.1679
   12       1.1357        0.9981       0.1376         0.0328       1.1030
   15       0.0050       -0.4267       0.4317        -1.0345       1.0395
   16       1.0327        1.4127      -0.3800        -0.2281       1.2608
   17      26.5174       -0.2316      26.7490         0.4320      26.0854
   27      -0.1341       -1.5380       1.4038        -1.0249       0.8908
 Sum       29.5499        0.5595      28.9904        -3.1553      32.7052

 Contributions to Isotropic shielding for atom   20 (    32.6163 ppm):
                         Standard Origin              Atomic Origin
 NLMO      Total    Paramagnetic  Diamagnetic   Paramagnetic  Diamagnetic
    1      -0.1882       -0.1408      -0.0474        -1.2991       1.1110
    4      -0.0585       -1.2307       1.1723        -0.9903       0.9318
    5       1.0983        1.1928      -0.0945         0.2321       0.8662
   13       1.2433        0.6201       0.6232         0.2654       0.9779
   15       0.2010        0.2249      -0.0239        -0.7992       1.0002
   18      26.3951       -0.0064      26.4015         0.5019      25.8932
   19       2.0563        1.8128       0.2436         0.2980       1.7584
 Sum       30.7475        2.4727      28.2748        -1.7912      32.5387

 Contributions to Isotropic shielding for atom   21 (    32.4910 ppm):
                         Standard Origin              Atomic Origin
 NLMO      Total    Paramagnetic  Diamagnetic   Paramagnetic  Diamagnetic
    5       1.2230        0.6590       0.5640         0.2579       0.9651
    7      -0.0252       -0.5204       0.4952        -1.1309       1.1057
   13       1.3137        0.0833       1.2304         0.3467       0.9670
   18       1.9226        1.9136       0.0091         0.1133       1.8093
   19      26.4753        0.0690      26.4063         0.4280      26.0473
 Sum       30.9094        2.2045      28.7050         0.0150      30.8944

 Contributions to Isotropic shielding for atom   22 (    33.3205 ppm):
                         Standard Origin              Atomic Origin
 NLMO      Total    Paramagnetic  Diamagnetic   Paramagnetic  Diamagnetic
    1      -0.0823       -0.8033       0.7210        -1.1902       1.1079
    2      -0.0227       -1.1048       1.0821        -0.9718       0.9491
    6       1.2473        0.5398       0.7075         0.4037       0.8436
    9       1.4909        0.0339       1.4570         0.6798       0.8111
   10      -0.0771       -0.0851       0.0080        -1.0038       0.9267
   20      26.4854        0.2381      26.2473         0.3930      26.0925
   21       1.9997        1.4139       0.5858         0.1303       1.8694
 Sum       31.0411        0.2325      30.8087        -1.5591      32.6003

 Contributions to Isotropic shielding for atom   23 (    32.2081 ppm):
                         Standard Origin              Atomic Origin
 NLMO      Total    Paramagnetic  Diamagnetic   Paramagnetic  Diamagnetic
    3      -0.0738       -1.0463       0.9725        -0.9191       0.8453
    6       0.9572        1.3770      -0.4198        -0.0324       0.9896
    7       0.0397       -0.4334       0.4731        -1.0039       1.0437
    9       1.1497        0.7985       0.3512         0.2720       0.8777
   10      -0.1201        0.0925      -0.2126        -1.3800       1.2599
   20       2.0457        1.1138       0.9319         0.2230       1.8227
   21      26.2839       -0.0012      26.2850         0.4515      25.8323
 Sum       30.2823        1.9009      28.3813        -2.3889      32.6712

 Contributions to Isotropic shielding for atom   24 (    35.0920 ppm):
                         Standard Origin              Atomic Origin
 NLMO      Total    Paramagnetic  Diamagnetic   Paramagnetic  Diamagnetic
    9      -0.2473        0.1734      -0.4207        -1.2840       1.0367
   10       2.0701        0.9756       1.0945         1.4489       0.6212
   16      -0.0782       -0.1993       0.1211        -1.0926       1.0144
   22      22.8270       -0.3598      23.1868        -0.2625      23.0895
   24      -0.0213       -0.3373       0.3160        -1.0569       1.0357
   43       3.7605        1.8605       1.9000         1.8035       1.9571
   44       5.3917        2.3339       3.0578         2.1805       3.2112
 Sum       33.7026        4.4471      29.2555         1.7368      31.9658

 Contributions to Isotropic shielding for atom   25 (    31.9757 ppm):
                         Standard Origin              Atomic Origin
 NLMO      Total    Paramagnetic  Diamagnetic   Paramagnetic  Diamagnetic
   10       0.0176       -0.4137       0.4314        -1.1465       1.1641
   16       1.4866        0.1305       1.3561         0.4380       1.0486
   23       0.7843        2.1391      -1.3548        -0.2619       1.0462
   24       1.0272        1.2658      -0.2386         0.0290       0.9982
   25      26.2503       -0.1099      26.3602         0.4361      25.8142
 Sum       29.5661        3.0118      26.5543        -0.5054      30.0714

 Contributions to Isotropic shielding for atom   26 (    32.5977 ppm):
                         Standard Origin              Atomic Origin
 NLMO      Total    Paramagnetic  Diamagnetic   Paramagnetic  Diamagnetic
   12      -0.0477        0.1674      -0.2151        -1.0942       1.0465
   23       1.5663       -1.1897       2.7560         0.6534       0.9129
   24      -0.1302        0.2851      -0.4154        -1.0298       0.8995
   26      26.3293        0.2995      26.0298         0.4124      25.9169
   27       1.9889        0.9778       1.0111         0.1710       1.8179
   28       1.9025        1.8915       0.0110         0.0591       1.8433
 Sum       31.6091        2.4316      29.1774        -0.8280      32.4371

 Contributions to Isotropic shielding for atom   27 (    32.4626 ppm):
                         Standard Origin              Atomic Origin
 NLMO      Total    Paramagnetic  Diamagnetic   Paramagnetic  Diamagnetic
   23       1.5073       -0.6369       2.1442         0.4973       1.0100
   26       2.0178        0.8582       1.1596         0.1898       1.8280
   27      26.3399        0.2369      26.1029         0.4347      25.9052
   28       1.8909        2.2957      -0.4048         0.0438       1.8471
 Sum       31.7559        2.7539      29.0019         1.1655      30.5903

 Contributions to Isotropic shielding for atom   28 (    32.4557 ppm):
                         Standard Origin              Atomic Origin
 NLMO      Total    Paramagnetic  Diamagnetic   Paramagnetic  Diamagnetic
   23       1.2963        0.1787       1.1177         0.2810       1.0153
   24      -0.1636        0.6902      -0.8537        -1.1215       0.9579
   26       1.9616        1.5455       0.4161         0.1076       1.8541
   27       1.9087        2.0453      -0.1366         0.0575       1.8512
   28      26.3558        0.0380      26.3177         0.4472      25.9086
 Sum       31.3589        4.4977      26.8612        -0.2282      31.5871

 Contributions to Isotropic shielding for atom   29 (    32.7768 ppm):
                         Standard Origin              Atomic Origin
 NLMO      Total    Paramagnetic  Diamagnetic   Paramagnetic  Diamagnetic
   12      -0.0810       -0.1140       0.0330        -1.0469       0.9658
   24       1.4109       -0.3387       1.7496         0.4564       0.9545
   29      26.2694        0.2540      26.0154         0.3734      25.8960
   30       2.1155        0.2655       1.8500         0.3110       1.8045
   31       1.9722        1.8559       0.1164         0.1160       1.8563
 Sum       31.6870        1.9227      29.7643         0.2099      31.4771

 Contributions to Isotropic shielding for atom   30 (    33.3626 ppm):
                         Standard Origin              Atomic Origin
 NLMO      Total    Paramagnetic  Diamagnetic   Paramagnetic  Diamagnetic
   10      -0.0360       -0.1803       0.1443        -1.0480       1.0120
   24       1.5160       -0.4908       2.0067         0.4828       1.0332
   29       2.1520        0.3189       1.8331         0.3045       1.8475
   30      26.5841        0.2998      26.2844         0.3635      26.2206
   31       2.0259        1.7442       0.2817         0.1498       1.8761
 Sum       32.2420        1.6918      30.5502         0.2525      31.9895

 Contributions to Isotropic shielding for atom   31 (    32.6208 ppm):
                         Standard Origin              Atomic Origin
 NLMO      Total    Paramagnetic  Diamagnetic   Paramagnetic  Diamagnetic
   23      -0.1129        0.3918      -0.5048        -1.0907       0.9778
   24       1.1299        1.0183       0.1117         0.0630       1.0670
   28      -0.0971       -1.0946       0.9975        -0.9832       0.8861
   29       2.0258        1.5239       0.5019         0.1520       1.8738
   30       2.0253        1.3434       0.6819         0.1766       1.8487
   31      26.2661       -0.0147      26.2808         0.4075      25.8586
 Sum       31.2371        3.1681      28.0690        -1.2748      32.5119
 
 1\1\GINC-COMPUTE-6-32\SP\RHF\STO-3G\C10H20O1\YTSAI.IQUIR\03-Aug-2021\0
 \\# rhf/STO-3G nmr pop=nbo\\comment\\0,1\C,0,0.088728898,0.693037955,-
 3.134051573\C,0,-0.813080896,-0.039577602,-2.139181636\C,0,-0.61760199
 8,-1.465546552,-0.050548982\C,0,-0.69615463,1.087721684,0.13842799\C,0
 ,-0.591926492,-0.247411587,0.911951773\C,0,-1.484475708,0.939870358,-1
 .160105749\C,0,-0.021653563,-1.144728732,-1.419965879\O,0,-0.008554773
 ,-2.620128068,0.511544001\C,0,0.538472651,-0.250074065,1.984940276\C,0
 ,0.302973741,0.837199912,3.042559331\C,0,1.956636699,-0.103793466,1.42
 5671177\H,0,0.897342403,1.226009255,-2.622679941\H,0,0.539423673,-0.01
 1952241,-3.840669154\H,0,-0.485074372,1.424416002,-3.712969539\H,0,-1.
 613946247,-0.514712752,-2.721469273\H,0,-1.668391108,-1.742623085,-0.2
 07399672\H,0,0.295407865,1.48370024,-0.103045925\H,0,-1.185667438,1.83
 7666213,0.771170966\H,0,-1.525979635,-0.338772153,1.488382462\H,0,-1.6
 24751004,1.921664302,-1.627354539\H,0,-2.490240151,0.571650867,-0.9185
 35359\H,0,1.029868775,-0.855951969,-1.302562093\H,0,0.000025556,-2.048
 496095,-2.042279965\H,0,0.950673716,-2.561628019,0.372668046\H,0,0.492
 471864,-1.209742861,2.516234234\H,0,0.40992765,1.842576589,2.622676148
 \H,0,-0.699006433,0.750966333,3.475715471\H,0,1.025760603,0.74093309,3
 .860230866\H,0,2.114774052,0.870281302,0.953662721\H,0,2.192048155,-0.
 878642427,0.693512808\H,0,2.691968146,-0.19391243,2.23347101\\Version=
 EM64L-G09RevC.01\State=1-A\HF=-459.6089583\RMSD=9.489e-09\Dipole=0.248
 1981,0.4355928,-0.2381814\Quadrupole=2.1749875,-2.6831377,0.5081502,-1
 .5344044,0.49998,1.32596\PG=C01 [X(C10H20O1)]\\@


 In the beginning there was nothing, which exploded.
 Job cpu time:  0 days  0 hours  0 minutes 23.1 seconds.
 File lengths (MBytes):  RWF=      5 Int=      0 D2E=      0 Chk=      1 Scr=      1
 Normal termination of Gaussian 09 at Tue Aug  3 16:35:48 2021.
