 Entering Gaussian System, Link 0=g09
 Input=/home/ytsai.iquir/menthol/02_menthol_M0013_MMFF_NMR_rhf_STO-3G_nbo.gjc
 Output=/home/ytsai.iquir/menthol/02_menthol_M0013_MMFF_NMR_rhf_STO-3G_nbo.log
 Initial command:
 /share/apps/Gaussian09/EM64T.SSE4.2-enabled/g09/l1.exe /tmp/Gau-31831.inp -scrdir=/tmp/
 Entering Link 1 = /share/apps/Gaussian09/EM64T.SSE4.2-enabled/g09/l1.exe PID=     31832.
  
 Copyright (c) 1988,1990,1992,1993,1995,1998,2003,2009,2011,
            Gaussian, Inc.  All Rights Reserved.
  
 This is part of the Gaussian(R) 09 program.  It is based on
 the Gaussian(R) 03 system (copyright 2003, Gaussian, Inc.),
 the Gaussian(R) 98 system (copyright 1998, Gaussian, Inc.),
 the Gaussian(R) 94 system (copyright 1995, Gaussian, Inc.),
 the Gaussian 92(TM) system (copyright 1992, Gaussian, Inc.),
 the Gaussian 90(TM) system (copyright 1990, Gaussian, Inc.),
 the Gaussian 88(TM) system (copyright 1988, Gaussian, Inc.),
 the Gaussian 86(TM) system (copyright 1986, Carnegie Mellon
 University), and the Gaussian 82(TM) system (copyright 1983,
 Carnegie Mellon University). Gaussian is a federally registered
 trademark of Gaussian, Inc.
  
 This software contains proprietary and confidential information,
 including trade secrets, belonging to Gaussian, Inc.
  
 This software is provided under written license and may be
 used, copied, transmitted, or stored only in accord with that
 written license.
  
 The following legend is applicable only to US Government
 contracts under FAR:
  
                    RESTRICTED RIGHTS LEGEND
  
 Use, reproduction and disclosure by the US Government is
 subject to restrictions as set forth in subparagraphs (a)
 and (c) of the Commercial Computer Software - Restricted
 Rights clause in FAR 52.227-19.
  
 Gaussian, Inc.
 340 Quinnipiac St., Bldg. 40, Wallingford CT 06492
  
  
 ---------------------------------------------------------------
 Warning -- This program may not be used in any manner that
 competes with the business of Gaussian, Inc. or will provide
 assistance to any competitor of Gaussian, Inc.  The licensee
 of this program is prohibited from giving any competitor of
 Gaussian, Inc. access to this program.  By using this program,
 the user acknowledges that Gaussian, Inc. is engaged in the
 business of creating and licensing software in the field of
 computational chemistry and represents and warrants to the
 licensee that it is not a competitor of Gaussian, Inc. and that
 it will not use this program in any manner prohibited above.
 ---------------------------------------------------------------
  

 Cite this work as:
 Gaussian 09, Revision C.01,
 M. J. Frisch, G. W. Trucks, H. B. Schlegel, G. E. Scuseria, 
 M. A. Robb, J. R. Cheeseman, G. Scalmani, V. Barone, B. Mennucci, 
 G. A. Petersson, H. Nakatsuji, M. Caricato, X. Li, H. P. Hratchian, 
 A. F. Izmaylov, J. Bloino, G. Zheng, J. L. Sonnenberg, M. Hada, 
 M. Ehara, K. Toyota, R. Fukuda, J. Hasegawa, M. Ishida, T. Nakajima, 
 Y. Honda, O. Kitao, H. Nakai, T. Vreven, J. A. Montgomery, Jr., 
 J. E. Peralta, F. Ogliaro, M. Bearpark, J. J. Heyd, E. Brothers, 
 K. N. Kudin, V. N. Staroverov, T. Keith, R. Kobayashi, J. Normand, 
 K. Raghavachari, A. Rendell, J. C. Burant, S. S. Iyengar, J. Tomasi, 
 M. Cossi, N. Rega, J. M. Millam, M. Klene, J. E. Knox, J. B. Cross, 
 V. Bakken, C. Adamo, J. Jaramillo, R. Gomperts, R. E. Stratmann, 
 O. Yazyev, A. J. Austin, R. Cammi, C. Pomelli, J. W. Ochterski, 
 R. L. Martin, K. Morokuma, V. G. Zakrzewski, G. A. Voth, 
 P. Salvador, J. J. Dannenberg, S. Dapprich, A. D. Daniels, 
 O. Farkas, J. B. Foresman, J. V. Ortiz, J. Cioslowski, 
 and D. J. Fox, Gaussian, Inc., Wallingford CT, 2010.
 
 ******************************************
 Gaussian 09:  EM64L-G09RevC.01 23-Sep-2011
                 3-Aug-2021 
 ******************************************
 %nprocshared=4
 Will use up to    4 processors via shared memory.
 ------------------------
 # rhf/STO-3G nmr pop=nbo
 ------------------------
 1/38=1/1;
 2/12=2,17=6,18=5,40=1/2;
 3/6=3,11=1,16=1,25=1,30=1,116=1/1,2,8,3;
 4//1;
 5/5=2,38=5/2;
 8/6=1,10=90,11=11/1;
 10/13=100,45=16/2;
 6/7=2,8=2,9=2,10=2,28=1,64=1/1,7;
 99/9=1/99;
 -------
 comment
 -------
 Charge =  0 Multiplicity = 1
 Symbolic Z-Matrix:
 6                    -0.57233   0.24331  -3.26482 
 6                    -1.02436  -0.10206  -1.84731 
 6                    -0.49795  -1.46991   0.21751 
 6                    -1.39374   0.82573   0.48941 
 6                    -0.40344  -0.19592   1.09317 
 6                    -1.07045   1.15734  -0.9691 
 6                    -0.12866  -1.19159  -1.24148 
 8                     0.29224  -2.5286    0.73555 
 6                     1.03705   0.39571   1.28116 
 6                     2.0157   -0.58428   1.94072 
 6                     1.01877   1.68119   2.12412 
 1                    -1.23765   0.98818  -3.71395 
 1                     0.44458   0.65013  -3.2702 
 1                    -0.58477  -0.64589  -3.90385 
 1                    -2.04487  -0.50368  -1.91155 
 1                    -1.5353   -1.82863   0.24989 
 1                    -1.43503   1.74465   1.0816 
 1                    -2.40779   0.40599   0.53658 
 1                    -0.76463  -0.46215   2.09657 
 1                    -0.11578   1.69344  -1.02553 
 1                    -1.83301   1.84435  -1.35615 
 1                     0.93002  -0.91344  -1.31485 
 1                    -0.22385  -2.11669  -1.82465 
 1                     0.17409  -3.29889   0.15416 
 1                     1.45738   0.65971   0.30396 
 1                     1.58486  -1.03274   2.84185 
 1                     2.30701  -1.38173   1.25211 
 1                     2.94526  -0.08046   2.22897 
 1                     0.51379   1.51909   3.08223 
 1                     0.51634   2.49914   1.59999 
 1                     2.03656   2.02872   2.33391 
 
                          Input orientation:                          
 ---------------------------------------------------------------------
 Center     Atomic      Atomic             Coordinates (Angstroms)
 Number     Number       Type             X           Y           Z
 ---------------------------------------------------------------------
      1          6           0       -0.572335    0.243314   -3.264824
      2          6           0       -1.024363   -0.102057   -1.847312
      3          6           0       -0.497954   -1.469912    0.217514
      4          6           0       -1.393740    0.825734    0.489407
      5          6           0       -0.403439   -0.195917    1.093166
      6          6           0       -1.070450    1.157340   -0.969103
      7          6           0       -0.128664   -1.191594   -1.241484
      8          8           0        0.292242   -2.528602    0.735550
      9          6           0        1.037050    0.395709    1.281162
     10          6           0        2.015697   -0.584280    1.940721
     11          6           0        1.018765    1.681186    2.124121
     12          1           0       -1.237650    0.988178   -3.713953
     13          1           0        0.444582    0.650134   -3.270205
     14          1           0       -0.584771   -0.645893   -3.903848
     15          1           0       -2.044874   -0.503680   -1.911551
     16          1           0       -1.535304   -1.828626    0.249889
     17          1           0       -1.435032    1.744650    1.081598
     18          1           0       -2.407794    0.405986    0.536575
     19          1           0       -0.764634   -0.462149    2.096566
     20          1           0       -0.115778    1.693443   -1.025531
     21          1           0       -1.833012    1.844349   -1.356151
     22          1           0        0.930015   -0.913443   -1.314853
     23          1           0       -0.223846   -2.116691   -1.824649
     24          1           0        0.174088   -3.298894    0.154159
     25          1           0        1.457376    0.659706    0.303965
     26          1           0        1.584860   -1.032739    2.841847
     27          1           0        2.307009   -1.381728    1.252112
     28          1           0        2.945263   -0.080464    2.228974
     29          1           0        0.513789    1.519086    3.082235
     30          1           0        0.516343    2.499136    1.599995
     31          1           0        2.036558    2.028720    2.333906
 ---------------------------------------------------------------------
                    Distance matrix (angstroms):
                    1          2          3          4          5
     1  C    0.000000
     2  C    1.527400   0.000000
     3  C    3.881668   2.532121   0.000000
     4  C    3.886923   2.541159   2.479183   0.000000
     5  C    4.383324   3.006787   1.548794   1.545636   0.000000
     6  C    2.520694   1.536052   2.939093   1.530272   2.555223
     7  C    2.519863   1.535055   1.530526   2.943810   2.552934
     8  O    4.943076   3.780575   1.419013   3.762272   2.460342
     9  C    4.824866   3.779490   2.639721   2.592400   1.568558
    10  C    5.872012   4.880953   3.173678   3.964683   2.592566
    11  C    5.799983   4.809013   3.983090   3.037148   2.570807
    12  H    1.095072   2.172200   4.695294   4.209393   5.020596
    13  H    1.095286   2.179040   4.188932   4.188668   4.524815
    14  H    1.095078   2.172174   4.203828   4.703276   5.020509
    15  H    2.134882   1.098577   2.803477   2.820624   3.437638
    16  H    4.192070   2.764119   1.098098   2.668902   2.158234
    17  H    4.678637   3.486759   3.458058   1.093984   2.197752
    18  H    4.224454   2.802661   2.695976   1.098508   2.165530
    19  H    5.411022   3.968790   2.148847   2.153457   1.099159
    20  H    2.706612   2.173631   3.420238   2.163595   2.853298
    21  H    2.792070   2.164174   3.904244   2.153281   3.493639
    22  H    2.719840   2.182076   2.167233   3.417591   2.844557
    23  H    2.786606   2.167969   2.159603   3.921909   3.497895
    24  H    4.979340   3.957516   1.949571   4.425272   3.292983
    25  H    4.126664   3.371542   2.892414   2.861960   2.194895
    26  H    6.601002   5.446322   3.378811   4.226104   2.776957
    27  H    5.597687   4.726735   2.990985   4.376088   2.962759
    28  H    6.531473   5.689859   4.222828   4.761746   3.537965
    29  H    6.564481   5.412435   4.261967   3.292744   2.781895
    30  H    5.471783   4.585183   4.323586   2.771659   2.892436
    31  H    6.429602   5.602859   4.810748   4.076309   3.527326
                    6          7          8          9         10
     6  C    0.000000
     7  C    2.545319   0.000000
     8  O    4.283567   2.423513   0.000000
     9  C    3.175742   3.200339   3.066599   0.000000
    10  C    4.585262   3.885042   2.864109   1.533997   0.000000
    11  C    3.769253   4.571297   4.492024   1.537324   2.481903
    12  H    2.755136   3.477694   5.874214   5.520549   6.710606
    13  H    2.801365   2.799336   5.116018   4.596814   5.580854
    14  H    3.478543   2.755722   5.083086   5.531688   6.397283
    15  H    2.143992   2.143380   4.070573   4.527757   5.597744
    16  H    3.258531   2.146774   2.016373   3.553617   4.125157
    17  H    2.164077   3.965456   4.622111   2.823235   4.250828
    18  H    2.149439   3.302756   3.992693   3.524410   4.745475
    19  H    3.480603   3.475504   2.690647   2.155660   2.787372
    20  H    1.096353   2.893137   4.592772   2.886860   4.304632
    21  H    1.096944   3.483519   5.292884   4.158273   5.619623
    22  H    2.899922   1.097065   2.686940   2.909404   3.447581
    23  H    3.488263   1.097700   2.643981   4.189042   4.641320
    24  H    4.761157   2.545622   0.972279   3.957895   3.735299
    25  H    2.873716   2.886390   3.421858   1.096031   2.130305
    26  H    5.135218   4.431139   2.888764   2.185474   1.094881
    27  H    4.773667   3.490942   2.375172   2.184702   1.093146
    28  H    5.280701   4.767359   3.906688   2.183200   1.095907
    29  H    4.365090   5.143451   4.683993   2.186239   2.825408
    30  H    3.304329   4.702289   5.106431   2.190250   3.445521
    31  H    4.617648   5.276554   5.134838   2.184951   2.642498
                   11         12         13         14         15
    11  C    0.000000
    12  H    6.297204   0.000000
    13  H    5.521911   1.772311   0.000000
    14  H    6.657555   1.769886   1.772218   0.000000
    15  H    5.517805   2.475057   3.061800   2.474141   0.000000
    16  H    4.728086   4.871860   4.738698   4.422205   2.585917
    17  H    2.666834   4.858860   4.865090   5.593953   3.792866
    18  H    3.985944   4.446929   4.763111   4.913982   2.636764
    19  H    2.788397   6.007439   5.612629   6.005920   4.207819
    20  H    3.347782   2.997267   2.537923   3.738603   3.055126
    21  H    4.502394   2.578123   3.205805   3.774940   2.422105
    22  H    4.308888   3.751082   2.550259   3.011488   3.061686
    23  H    5.617894   3.773259   3.192452   2.572273   2.434235
    24  H    5.421755   5.944264   5.233952   4.907311   4.123611
    25  H    2.132784   4.849197   3.714906   4.855990   4.304385
    26  H    2.863735   7.418166   6.441233   7.096574   6.004138
    27  H    3.435318   6.545446   5.296079   5.957162   5.451479
    28  H    2.612622   7.345552   6.085076   7.098758   6.498040
    29  H    1.095107   7.038293   6.411970   7.395899   5.964582
    30  H    1.093700   5.796337   5.209875   6.433968   5.282773
    31  H    1.095761   6.955556   5.986731   7.275610   6.410542
                   16         17         18         19         20
    16  H    0.000000
    17  H    3.670162   0.000000
    18  H    2.415972   1.742221   0.000000
    19  H    2.423099   2.519832   2.426356   0.000000
    20  H    4.005836   2.486573   3.057950   3.849036   0.000000
    21  H    4.019793   2.472033   2.445746   4.287495   1.755271
    22  H    3.060029   4.289742   4.038521   3.835789   2.823693
    23  H    2.471155   4.982288   4.087653   4.290208   3.894533
    24  H    2.256739   5.374639   4.531941   3.563883   5.138007
    25  H    3.892409   3.185567   3.880466   3.067459   2.304557
    26  H    4.133656   4.464539   4.829648   2.530047   5.028007
    27  H    3.995940   4.879158   5.092866   3.315677   4.529264
    28  H    5.200800   4.882058   5.635252   3.731829   4.807132
    29  H    4.840263   2.802023   4.031752   2.555622   4.159386
    30  H    4.976099   2.155423   3.750028   3.264459   2.818174
    31  H    5.655125   3.701474   5.061218   3.755986   4.003846
                   21         22         23         24         25
    21  H    0.000000
    22  H    3.904029   0.000000
    23  H    4.301016   1.743299   0.000000
    24  H    5.723847   2.901689   2.339152   0.000000
    25  H    3.871177   2.318076   3.881479   4.164106   0.000000
    26  H    6.130471   4.209657   5.120796   3.788061   3.053108
    27  H    5.860920   2.950375   4.051155   3.070892   2.405891
    28  H    6.276140   4.160984   5.533654   4.726792   2.543093
    29  H    5.031157   5.042303   6.151462   5.648182   3.057397
    30  H    3.832364   4.507012   5.794991   5.985376   2.439004
    31  H    5.350148   4.816036   6.291855   6.050088   2.516012
                   26         27         28         29         30
    26  H    0.000000
    27  H    1.780604   0.000000
    28  H    1.770067   1.747831   0.000000
    29  H    2.777911   3.870363   3.032932   0.000000
    30  H    3.893336   4.288195   3.598556   1.776947   0.000000
    31  H    3.136011   3.588116   2.299002   1.771595   1.752419
                   31
    31  H    0.000000
 Stoichiometry    C10H20O
 Framework group  C1[X(C10H20O)]
 Deg. of freedom    87
 Full point group                 C1      NOp   1
 Largest Abelian subgroup         C1      NOp   1
 Largest concise Abelian subgroup C1      NOp   1
                         Standard orientation:                         
 ---------------------------------------------------------------------
 Center     Atomic      Atomic             Coordinates (Angstroms)
 Number     Number       Type             X           Y           Z
 ---------------------------------------------------------------------
      1          6           0        3.205687   -0.292573   -1.032487
      2          6           0        2.136614   -0.099013    0.041090
      3          6           0        0.073240    1.215404    0.694107
      4          6           0        0.184581   -1.200761    1.238257
      5          6           0       -0.775821   -0.076506    0.788071
      6          6           0        1.347246   -1.397897    0.263025
      7          6           0        1.217019    1.077837   -0.313541
      8          8           0       -0.721671    2.350767    0.389700
      9          6           0       -1.587062   -0.453294   -0.500453
     10          6           0       -2.593155    0.624972   -0.922666
     11          6           0       -2.357406   -1.771752   -0.322684
     12          1           0        3.889030   -1.103181   -0.758371
     13          1           0        2.757215   -0.540171   -2.000588
     14          1           0        3.799808    0.618776   -1.157619
     15          1           0        2.649116    0.146794    0.981193
     16          1           0        0.505645    1.410932    1.684367
     17          1           0       -0.344366   -2.146937    1.385797
     18          1           0        0.594474   -0.942301    2.224110
     19          1           0       -1.514113    0.075754    1.588005
     20          1           0        0.969832   -1.779647   -0.692912
     21          1           0        2.018486   -2.169556    0.659594
     22          1           0        0.813396    0.967328   -1.327656
     23          1           0        1.797895    2.008995   -0.335292
     24          1           0       -0.134851    3.125570    0.364271
     25          1           0       -0.898238   -0.595876   -1.340973
     26          1           0       -3.205991    0.952262   -0.076453
     27          1           0       -2.089404    1.494408   -1.353114
     28          1           0       -3.268621    0.252079   -1.700940
     29          1           0       -2.993591   -1.741461    0.568164
     30          1           0       -1.679440   -2.625706   -0.237227
     31          1           0       -2.998560   -1.972700   -1.188267
 ---------------------------------------------------------------------
 Rotational constants (GHZ):      1.4426489      0.8297358      0.6549321
 Standard basis: STO-3G (5D, 7F)
 There are    75 symmetry adapted basis functions of A   symmetry.
 Integral buffers will be    131072 words long.
 Raffenetti 1 integral format.
 Two-electron integral symmetry is turned on.
    75 basis functions,   225 primitive gaussians,    75 cartesian basis functions
    44 alpha electrons       44 beta electrons
       nuclear repulsion energy       698.3773962837 Hartrees.
 NAtoms=   31 NActive=   31 NUniq=   31 SFac= 1.00D+00 NAtFMM=   60 NAOKFM=F Big=F
 One-electron integrals computed using PRISM.
 NBasis=    75 RedAO= T  NBF=    75
 NBsUse=    75 1.00D-06 NBFU=    75
 Harris functional with IExCor=  205 diagonalized for initial guess.
 ExpMin= 1.69D-01 ExpMax= 1.31D+02 ExpMxC= 1.31D+02 IAcc=1 IRadAn=         1 AccDes= 0.00D+00
 HarFok:  IExCor=  205 AccDes= 0.00D+00 IRadAn=         1 IDoV= 1
 ScaDFX=  1.000000  1.000000  1.000000  1.000000
 FoFCou: FMM=F IPFlag=           0 FMFlag=      100000 FMFlg1=           0
         NFxFlg=           0 DoJE=T BraDBF=F KetDBF=T FulRan=T
         Omega=  0.000000  0.000000  1.000000  0.000000  0.000000 ICntrl=     500 IOpCl=  0
         NMat0=    1 NMatS0=    1 NMatT0=    0 NMatD0=    1 NMtDS0=    0 NMtDT0=    0
         I1Cent=           4 NGrid=           0.
 Petite list used in FoFCou.
 Initial guess orbital symmetries:
       Occupied  (A) (A) (A) (A) (A) (A) (A) (A) (A) (A) (A) (A)
                 (A) (A) (A) (A) (A) (A) (A) (A) (A) (A) (A) (A)
                 (A) (A) (A) (A) (A) (A) (A) (A) (A) (A) (A) (A)
                 (A) (A) (A) (A) (A) (A) (A) (A)
       Virtual   (A) (A) (A) (A) (A) (A) (A) (A) (A) (A) (A) (A)
                 (A) (A) (A) (A) (A) (A) (A) (A) (A) (A) (A) (A)
                 (A) (A) (A) (A) (A) (A) (A)
 The electronic state of the initial guess is 1-A.
 Requested convergence on RMS density matrix=1.00D-08 within 128 cycles.
 Requested convergence on MAX density matrix=1.00D-06.
 Requested convergence on             energy=1.00D-06.
 No special actions if energy rises.
 Keep R1 ints in memory in canonical form, NReq=4898789.
 SCF Done:  E(RHF) =  -459.616670696     A.U. after   10 cycles
             Convg  =    0.7612D-08             -V/T =  2.0090
 Range of M.O.s used for correlation:     1    75
 NBasis=    75 NAE=    44 NBE=    44 NFC=     0 NFV=     0
 NROrb=     75 NOA=    44 NOB=    44 NVA=    31 NVB=    31
          Differentiating once with respect to magnetic field using GIAOs.
          Electric field/nuclear overlap derivatives assumed to be zero.
          Keep R3 ints in memory in canonical form, NReq=4863575.
 FoFCou: FMM=F IPFlag=           0 FMFlag=           0 FMFlg1=           0
         NFxFlg=           0 DoJE=F BraDBF=F KetDBF=T FulRan=T
         Omega=  0.000000  0.000000  1.000000  0.000000  0.000000 ICntrl=    6100 IOpCl=  0
         NMat0=    1 NMatS0=    1 NMatT0=    0 NMatD0=    1 NMtDS0=    0 NMtDT0=    0
         I1Cent=           7 NGrid=          31.
 Symmetry not used in FoFCou.
          There are     3 degrees of freedom in the 1st order CPHF.  IDoFFX=0.
      3 vectors produced by pass  0 Test12= 4.55D-14 3.33D-08 XBig12= 6.79D+00 4.29D-01.
 AX will form     3 AO Fock derivatives at one time.
      3 vectors produced by pass  1 Test12= 4.55D-14 3.33D-08 XBig12= 1.16D-02 1.37D-02.
      3 vectors produced by pass  2 Test12= 4.55D-14 3.33D-08 XBig12= 1.27D-04 3.10D-03.
      3 vectors produced by pass  3 Test12= 4.55D-14 3.33D-08 XBig12= 1.64D-06 3.20D-04.
      3 vectors produced by pass  4 Test12= 4.55D-14 3.33D-08 XBig12= 1.51D-08 2.07D-05.
      3 vectors produced by pass  5 Test12= 4.55D-14 3.33D-08 XBig12= 2.18D-10 2.25D-06.
      3 vectors produced by pass  6 Test12= 4.55D-14 3.33D-08 XBig12= 2.00D-12 2.02D-07.
 Inverted reduced A of dimension    21 with in-core refinement.
 Calculating GIAO nuclear magnetic shielding tensors.
 SCF GIAO Magnetic shielding tensor (ppm):
      1  C    Isotropic =   221.2175   Anisotropy =    27.8906
   XX=   229.1368   YX=    -1.8203   ZX=   -11.9014
   XY=    -2.5782   YY=   212.4678   ZY=     1.7964
   XZ=   -15.0339   YZ=     1.7639   ZZ=   222.0479
   Eigenvalues:   211.6575   212.1838   239.8113
      2  C    Isotropic =   214.6652   Anisotropy =     7.9826
   XX=   218.5048   YX=    -0.2936   ZX=    -2.9011
   XY=    -0.4257   YY=   216.2775   ZY=    -2.2342
   XZ=    -4.9654   YZ=    -1.8783   ZZ=   209.2131
   Eigenvalues:   207.3010   216.7077   219.9869
      3  C    Isotropic =   186.7234   Anisotropy =    40.3769
   XX=   187.4221   YX=   -14.6930   ZX=     4.8898
   XY=   -12.4169   YY=   202.3396   ZY=    -8.2822
   XZ=     5.3141   YZ=   -13.3781   ZZ=   170.4086
   Eigenvalues:   167.0282   179.5007   213.6414
      4  C    Isotropic =   216.9379   Anisotropy =    14.4730
   XX=   221.9113   YX=    -7.0376   ZX=    -0.4505
   XY=    -6.9718   YY=   215.8156   ZY=    -4.2571
   XZ=    -1.0177   YZ=    -1.7866   ZZ=   213.0867
   Eigenvalues:   209.0595   215.1676   226.5865
      5  C    Isotropic =   209.6001   Anisotropy =    13.9770
   XX=   210.9359   YX=     3.4279   ZX=     7.7450
   XY=     2.5245   YY=   207.0902   ZY=     0.5191
   XZ=     6.5291   YZ=     2.8519   ZZ=   210.7743
   Eigenvalues:   203.4419   206.4403   218.9182
      6  C    Isotropic =   217.8754   Anisotropy =    18.4420
   XX=   221.1210   YX=     5.1071   ZX=    -8.3537
   XY=     7.4314   YY=   220.4824   ZY=    -3.6809
   XZ=    -5.9240   YZ=    -2.7842   ZZ=   212.0228
   Eigenvalues:   208.1033   215.3527   230.1701
      7  C    Isotropic =   215.4407   Anisotropy =    23.7039
   XX=   221.5742   YX=    -9.9279   ZX=    -7.7508
   XY=    -8.9405   YY=   217.9801   ZY=     0.0009
   XZ=    -7.3324   YZ=     2.6553   ZZ=   206.7678
   Eigenvalues:   203.0677   212.0111   231.2433
      8  O    Isotropic =   356.1041   Anisotropy =    95.4253
   XX=   363.3525   YX=    58.8808   ZX=   -16.3576
   XY=    33.9577   YY=   381.2410   ZY=     2.5877
   XZ=     0.2334   YZ=     0.8743   ZZ=   323.7189
   Eigenvalues:   316.9465   331.6448   419.7210
      9  C    Isotropic =   215.0379   Anisotropy =    13.4366
   XX=   214.5601   YX=     2.4369   ZX=     8.5528
   XY=     2.5411   YY=   217.4579   ZY=    -0.1722
   XZ=    10.7586   YZ=    -0.0261   ZZ=   213.0958
   Eigenvalues:   203.9119   217.2063   223.9957
     10  C    Isotropic =   220.6554   Anisotropy =    25.8964
   XX=   222.4043   YX=   -11.2766   ZX=    10.5066
   XY=    -9.2064   YY=   227.1493   ZY=    -3.3661
   XZ=     9.4268   YZ=    -0.9817   ZZ=   212.4127
   Eigenvalues:   205.5430   218.5036   237.9197
     11  C    Isotropic =   220.7246   Anisotropy =    26.6097
   XX=   218.1705   YX=    13.6449   ZX=     2.9117
   XY=    10.9964   YY=   230.8342   ZY=    -2.6912
   XZ=     4.7017   YZ=    -5.7746   ZZ=   213.1692
   Eigenvalues:   206.2791   217.4303   238.4644
     12  H    Isotropic =    32.4447   Anisotropy =    14.0023
   XX=    37.2289   YX=    -6.5318   ZX=    -1.2099
   XY=    -6.4121   YY=    32.5152   ZY=    -1.0567
   XZ=    -1.3901   YZ=    -0.8164   ZZ=    27.5901
   Eigenvalues:    26.2515    29.3031    41.7796
     13  H    Isotropic =    32.6687   Anisotropy =    10.9057
   XX=    30.9736   YX=    -0.0213   ZX=    -0.6965
   XY=     0.0541   YY=    27.8154   ZY=     2.8481
   XZ=    -0.6040   YZ=     2.8749   ZZ=    39.2172
   Eigenvalues:    27.1304    30.9366    39.9392
     14  H    Isotropic =    32.4942   Anisotropy =    13.8599
   XX=    36.0498   YX=     5.5373   ZX=    -4.0260
   XY=     5.4378   YY=    33.4261   ZY=    -1.6477
   XZ=    -4.1053   YZ=    -1.9168   ZZ=    28.0067
   Eigenvalues:    26.2583    29.4902    41.7341
     15  H    Isotropic =    32.7990   Anisotropy =    12.0901
   XX=    34.7815   YX=     1.4729   ZX=     5.2206
   XY=     1.3967   YY=    28.1263   ZY=     2.1957
   XZ=     5.1775   YZ=     2.1120   ZZ=    35.4891
   Eigenvalues:    27.5424    29.9955    40.8591
     16  H    Isotropic =    31.9707   Anisotropy =     9.8662
   XX=    28.9666   YX=     0.2696   ZX=     3.7049
   XY=     0.3765   YY=    31.1703   ZY=     3.1339
   XZ=     2.4235   YZ=     3.9282   ZZ=    35.7753
   Eigenvalues:    27.4230    29.9410    38.5482
     17  H    Isotropic =    32.2646   Anisotropy =    12.7824
   XX=    31.7772   YX=     4.0206   ZX=    -0.4079
   XY=     4.3954   YY=    36.9543   ZY=    -4.9901
   XZ=     0.0410   YZ=    -4.5836   ZZ=    28.0624
   Eigenvalues:    25.5267    30.4809    40.7862
     18  H    Isotropic =    32.6633   Anisotropy =    13.3296
   XX=    29.5165   YX=    -0.6766   ZX=     3.4065
   XY=    -0.4099   YY=    27.8910   ZY=    -1.0700
   XZ=     3.0148   YZ=    -1.0966   ZZ=    40.5824
   Eigenvalues:    27.7246    28.7156    41.5497
     19  H    Isotropic =    32.2218   Anisotropy =    12.0574
   XX=    33.8339   YX=    -0.7044   ZX=    -5.4176
   XY=    -0.3489   YY=    27.8363   ZY=     1.3243
   XZ=    -5.8846   YZ=     1.5737   ZZ=    34.9952
   Eigenvalues:    27.4195    28.9858    40.2601
     20  H    Isotropic =    32.7702   Anisotropy =     8.8467
   XX=    32.6077   YX=     1.2255   ZX=     0.6139
   XY=     1.2067   YY=    31.8227   ZY=     5.3635
   XZ=     0.7371   YZ=     5.5204   ZZ=    33.8803
   Eigenvalues:    27.2640    32.3787    38.6681
     21  H    Isotropic =    32.5362   Anisotropy =    14.5765
   XX=    33.6271   YX=    -6.0121   ZX=     0.5328
   XY=    -5.9818   YY=    36.5743   ZY=    -4.1759
   XZ=     0.6942   YZ=    -4.4291   ZZ=    27.4071
   Eigenvalues:    25.2425    30.1122    42.2538
     22  H    Isotropic =    32.4778   Anisotropy =     7.8637
   XX=    32.2625   YX=    -0.5636   ZX=     1.0975
   XY=    -0.2818   YY=    28.0274   ZY=    -1.4929
   XZ=     1.4108   YZ=    -1.6518   ZZ=    37.1436
   Eigenvalues:    27.7537    31.9595    37.7203
     23  H    Isotropic =    32.9137   Anisotropy =    13.1488
   XX=    33.2501   YX=     4.1036   ZX=    -2.3870
   XY=     4.4945   YY=    39.1502   ZY=    -1.2026
   XZ=    -1.9338   YZ=    -1.0568   ZZ=    26.3407
   Eigenvalues:    25.7199    31.3415    41.6795
     24  H    Isotropic =    35.0815   Anisotropy =    19.4266
   XX=    33.4677   YX=     5.0206   ZX=     0.2404
   XY=     3.3296   YY=    46.8303   ZY=    -0.4070
   XZ=     0.1308   YZ=    -0.4070   ZZ=    24.9464
   Eigenvalues:    24.9299    32.2820    48.0325
     25  H    Isotropic =    32.5989   Anisotropy =     8.2073
   XX=    35.2757   YX=    -0.0334   ZX=    -2.9066
   XY=     0.0043   YY=    27.7788   ZY=     1.6828
   XZ=    -2.9386   YZ=     1.6324   ZZ=    34.7422
   Eigenvalues:    27.3468    32.3795    38.0704
     26  H    Isotropic =    32.3470   Anisotropy =    11.4380
   XX=    36.0454   YX=    -4.2960   ZX=    -2.9872
   XY=    -4.4159   YY=    30.3744   ZY=     2.7033
   XZ=    -2.8772   YZ=     2.4764   ZZ=    30.6211
   Eigenvalues:    27.5628    29.5058    39.9723
     27  H    Isotropic =    31.8028   Anisotropy =    10.0945
   XX=    30.5760   YX=     1.8761   ZX=     2.2668
   XY=     2.2913   YY=    35.7503   ZY=    -5.2993
   XZ=     2.6382   YZ=    -4.8045   ZZ=    29.0823
   Eigenvalues:    24.6754    32.2006    38.5325
     28  H    Isotropic =    32.6231   Anisotropy =    14.2092
   XX=    34.5310   YX=     0.5275   ZX=     8.0256
   XY=     0.3436   YY=    29.7053   ZY=     0.3392
   XZ=     7.9267   YZ=     0.3635   ZZ=    33.6331
   Eigenvalues:    26.0928    29.6807    42.0959
     29  H    Isotropic =    32.5456   Anisotropy =    12.0765
   XX=    34.8237   YX=     3.6890   ZX=    -5.0348
   XY=     3.8034   YY=    29.9413   ZY=    -2.0608
   XZ=    -5.0784   YZ=    -1.7890   ZZ=    32.8717
   Eigenvalues:    27.6638    29.3763    40.5966
     30  H    Isotropic =    32.4027   Anisotropy =    10.5366
   XX=    32.0962   YX=    -1.5414   ZX=     2.0784
   XY=    -1.7439   YY=    39.0411   ZY=     0.1121
   XZ=     2.5702   YZ=    -0.0200   ZZ=    26.0707
   Eigenvalues:    25.2539    32.5271    39.4270
     31  H    Isotropic =    32.5303   Anisotropy =    14.1098
   XX=    32.9864   YX=     4.0564   ZX=     6.5263
   XY=     4.2711   YY=    31.7938   ZY=     3.1129
   XZ=     6.3129   YZ=     3.0972   ZZ=    32.8107
   Eigenvalues:    26.3298    29.3243    41.9368
 End of Minotr Frequency-dependent properties file   721 does not exist.
 End of Minotr Frequency-dependent properties file   722 does not exist.

 **********************************************************************

            Population analysis using the SCF density.

 **********************************************************************

 Orbital symmetries:
       Occupied  (A) (A) (A) (A) (A) (A) (A) (A) (A) (A) (A) (A)
                 (A) (A) (A) (A) (A) (A) (A) (A) (A) (A) (A) (A)
                 (A) (A) (A) (A) (A) (A) (A) (A) (A) (A) (A) (A)
                 (A) (A) (A) (A) (A) (A) (A) (A)
       Virtual   (A) (A) (A) (A) (A) (A) (A) (A) (A) (A) (A) (A)
                 (A) (A) (A) (A) (A) (A) (A) (A) (A) (A) (A) (A)
                 (A) (A) (A) (A) (A) (A) (A)
 The electronic state is 1-A.
 Alpha  occ. eigenvalues --  -20.23670 -11.08556 -11.04945 -11.04367 -11.04143
 Alpha  occ. eigenvalues --  -11.03765 -11.03717 -11.03643 -11.03349 -11.02566
 Alpha  occ. eigenvalues --  -11.01623  -1.27906  -1.08303  -1.03027  -0.96953
 Alpha  occ. eigenvalues --   -0.94841  -0.88046  -0.87726  -0.79252  -0.77487
 Alpha  occ. eigenvalues --   -0.74665  -0.68844  -0.62400  -0.60980  -0.58383
 Alpha  occ. eigenvalues --   -0.57905  -0.56294  -0.55290  -0.53035  -0.50675
 Alpha  occ. eigenvalues --   -0.50102  -0.49673  -0.49353  -0.47675  -0.47243
 Alpha  occ. eigenvalues --   -0.46243  -0.43956  -0.43374  -0.41950  -0.40679
 Alpha  occ. eigenvalues --   -0.39291  -0.38266  -0.36036  -0.33070
 Alpha virt. eigenvalues --    0.52797   0.55458   0.56612   0.60341   0.61689
 Alpha virt. eigenvalues --    0.62012   0.62909   0.63970   0.65974   0.66756
 Alpha virt. eigenvalues --    0.69504   0.70138   0.70951   0.72557   0.72926
 Alpha virt. eigenvalues --    0.73259   0.73686   0.74366   0.75655   0.76479
 Alpha virt. eigenvalues --    0.76668   0.77555   0.78291   0.79008   0.79976
 Alpha virt. eigenvalues --    0.81766   0.82225   0.82525   0.83697   0.84284
 Alpha virt. eigenvalues --    0.85092
          Condensed to atoms (all electrons):
              1          2          3          4          5          6
     1  C    4.739478   0.365612   0.000698   0.000716  -0.000003  -0.024081
     2  C    0.365612   4.743392  -0.019965  -0.021996  -0.002784   0.363687
     3  C    0.000698  -0.019965   4.740739  -0.024695   0.356593  -0.004088
     4  C    0.000716  -0.021996  -0.024695   4.759185   0.360100   0.363079
     5  C   -0.000003  -0.002784   0.356593   0.360100   4.771815  -0.021483
     6  C   -0.024081   0.363687  -0.004088   0.363079  -0.021483   4.755868
     7  C   -0.024243   0.361811   0.357897  -0.003646  -0.022562  -0.022227
     8  O   -0.000001   0.000245   0.268580   0.000228  -0.015499   0.000001
     9  C    0.000000   0.000081  -0.017490  -0.019402   0.357578  -0.001667
    10  C    0.000000   0.000000  -0.000894   0.000547  -0.019694   0.000004
    11  C    0.000000   0.000000   0.000528  -0.003117  -0.020733  -0.000009
    12  H    0.382373  -0.020265  -0.000016   0.000013   0.000000  -0.002187
    13  H    0.382274  -0.020772   0.000008   0.000009   0.000002  -0.002220
    14  H    0.382335  -0.020325   0.000012  -0.000017   0.000000   0.001281
    15  H   -0.024154   0.381538  -0.001663  -0.001431   0.000061  -0.024469
    16  H    0.000000  -0.001742   0.375537  -0.002630  -0.024077   0.000095
    17  H   -0.000015   0.001217   0.001208   0.383534  -0.019712  -0.021258
    18  H    0.000005  -0.001906  -0.002541   0.380777  -0.021716  -0.023236
    19  H    0.000001   0.000014  -0.023342  -0.022009   0.379503   0.001194
    20  H   -0.002906  -0.022269   0.000062  -0.022314  -0.001536   0.381347
    21  H   -0.001624  -0.021332   0.000028  -0.021600   0.001200   0.382414
    22  H   -0.002780  -0.020846  -0.021951   0.000107  -0.001883  -0.001160
    23  H   -0.001725  -0.020603  -0.021941   0.000017   0.001137   0.001188
    24  H    0.000000   0.000005  -0.041272  -0.000040   0.002362   0.000000
    25  H    0.000004   0.000023  -0.001364  -0.001314  -0.022367  -0.000554
    26  H    0.000000   0.000000   0.000002   0.000013  -0.002764   0.000000
    27  H    0.000000   0.000000  -0.000156  -0.000002  -0.000640   0.000001
    28  H    0.000000   0.000000  -0.000001  -0.000013   0.001052   0.000000
    29  H    0.000000   0.000000   0.000010  -0.000053  -0.002467   0.000004
    30  H    0.000000  -0.000001  -0.000002  -0.001411  -0.001008  -0.000017
    31  H    0.000000   0.000000  -0.000011   0.000045   0.001068  -0.000001
              7          8          9         10         11         12
     1  C   -0.024243  -0.000001   0.000000   0.000000   0.000000   0.382373
     2  C    0.361811   0.000245   0.000081   0.000000   0.000000  -0.020265
     3  C    0.357897   0.268580  -0.017490  -0.000894   0.000528  -0.000016
     4  C   -0.003646   0.000228  -0.019402   0.000547  -0.003117   0.000013
     5  C   -0.022562  -0.015499   0.357578  -0.019694  -0.020733   0.000000
     6  C   -0.022227   0.000001  -0.001667   0.000004  -0.000009  -0.002187
     7  C    4.786529  -0.018876  -0.001659   0.000005   0.000004   0.001289
     8  O   -0.018876   7.846243  -0.000197  -0.001860  -0.000001   0.000000
     9  C   -0.001659  -0.000197   4.739286   0.364144   0.363709   0.000000
    10  C    0.000005  -0.001860   0.364144   4.742335  -0.027857   0.000000
    11  C    0.000004  -0.000001   0.363709  -0.027857   4.746012   0.000000
    12  H    0.001289   0.000000   0.000000   0.000000   0.000000   0.629606
    13  H   -0.002232   0.000000  -0.000001   0.000000   0.000000  -0.021647
    14  H   -0.002210   0.000000   0.000000   0.000000   0.000000  -0.021590
    15  H   -0.024606   0.000001  -0.000002   0.000000   0.000000  -0.002308
    16  H   -0.027949  -0.020983   0.000992  -0.000008  -0.000012   0.000000
    17  H    0.000001  -0.000003  -0.001847   0.000007  -0.001497  -0.000001
    18  H    0.000068   0.000007   0.001082  -0.000011   0.000040   0.000001
    19  H    0.001197  -0.000405  -0.024321  -0.002205  -0.001997   0.000000
    20  H   -0.001123  -0.000001  -0.000619   0.000000  -0.000008  -0.000021
    21  H    0.001195   0.000000   0.000015   0.000000  -0.000001   0.000219
    22  H    0.380310  -0.000486  -0.000573  -0.000022  -0.000002   0.000022
    23  H    0.380588  -0.001228   0.000012  -0.000002   0.000000   0.000008
    24  H   -0.003382   0.258267  -0.000005   0.000086   0.000000   0.000000
    25  H   -0.000497   0.000041   0.380830  -0.024915  -0.024856   0.000000
    26  H    0.000002  -0.000090  -0.020785   0.382400  -0.001020   0.000000
    27  H   -0.000014  -0.000077  -0.019557   0.382919   0.001394   0.000000
    28  H    0.000000   0.000034  -0.019751   0.381459  -0.004724   0.000000
    29  H    0.000000   0.000000  -0.020730  -0.001368   0.381771   0.000000
    30  H    0.000001   0.000000  -0.019582   0.001386   0.382466   0.000000
    31  H    0.000000   0.000000  -0.019254  -0.004080   0.382879   0.000000
             13         14         15         16         17         18
     1  C    0.382274   0.382335  -0.024154   0.000000  -0.000015   0.000005
     2  C   -0.020772  -0.020325   0.381538  -0.001742   0.001217  -0.001906
     3  C    0.000008   0.000012  -0.001663   0.375537   0.001208  -0.002541
     4  C    0.000009  -0.000017  -0.001431  -0.002630   0.383534   0.380777
     5  C    0.000002   0.000000   0.000061  -0.024077  -0.019712  -0.021716
     6  C   -0.002220   0.001281  -0.024469   0.000095  -0.021258  -0.023236
     7  C   -0.002232  -0.002210  -0.024606  -0.027949   0.000001   0.000068
     8  O    0.000000   0.000000   0.000001  -0.020983  -0.000003   0.000007
     9  C   -0.000001   0.000000  -0.000002   0.000992  -0.001847   0.001082
    10  C    0.000000   0.000000   0.000000  -0.000008   0.000007  -0.000011
    11  C    0.000000   0.000000   0.000000  -0.000012  -0.001497   0.000040
    12  H   -0.021647  -0.021590  -0.002308   0.000000  -0.000001   0.000001
    13  H    0.629925  -0.021704   0.001900  -0.000001   0.000000  -0.000001
    14  H   -0.021704   0.630825  -0.002331   0.000001   0.000000   0.000000
    15  H    0.001900  -0.002331   0.653705   0.000313  -0.000003   0.000317
    16  H   -0.000001   0.000001   0.000313   0.669736   0.000030  -0.000041
    17  H    0.000000   0.000000  -0.000003   0.000030   0.635212  -0.024339
    18  H   -0.000001   0.000000   0.000317  -0.000041  -0.024339   0.648123
    19  H    0.000000   0.000000  -0.000009  -0.002863  -0.001719  -0.002812
    20  H    0.000365   0.000022   0.001901   0.000004  -0.002453   0.001952
    21  H    0.000006   0.000006  -0.003234  -0.000014  -0.001962  -0.002744
    22  H    0.000353  -0.000026   0.001870   0.001928  -0.000007   0.000005
    23  H    0.000001   0.000228  -0.003143  -0.002474   0.000002  -0.000011
    24  H    0.000000   0.000000   0.000004  -0.003345   0.000001  -0.000002
    25  H    0.000001   0.000000  -0.000003  -0.000006   0.000050  -0.000011
    26  H    0.000000   0.000000   0.000000  -0.000009   0.000001  -0.000001
    27  H    0.000000   0.000000   0.000000   0.000008   0.000000   0.000000
    28  H    0.000000   0.000000   0.000000   0.000001  -0.000001   0.000000
    29  H    0.000000   0.000000   0.000000  -0.000001  -0.000006  -0.000010
    30  H    0.000000   0.000000   0.000000   0.000000  -0.001424   0.000017
    31  H    0.000000   0.000000   0.000000   0.000000   0.000017   0.000000
             19         20         21         22         23         24
     1  C    0.000001  -0.002906  -0.001624  -0.002780  -0.001725   0.000000
     2  C    0.000014  -0.022269  -0.021332  -0.020846  -0.020603   0.000005
     3  C   -0.023342   0.000062   0.000028  -0.021951  -0.021941  -0.041272
     4  C   -0.022009  -0.022314  -0.021600   0.000107   0.000017  -0.000040
     5  C    0.379503  -0.001536   0.001200  -0.001883   0.001137   0.002362
     6  C    0.001194   0.381347   0.382414  -0.001160   0.001188   0.000000
     7  C    0.001197  -0.001123   0.001195   0.380310   0.380588  -0.003382
     8  O   -0.000405  -0.000001   0.000000  -0.000486  -0.001228   0.258267
     9  C   -0.024321  -0.000619   0.000015  -0.000573   0.000012  -0.000005
    10  C   -0.002205   0.000000   0.000000  -0.000022  -0.000002   0.000086
    11  C   -0.001997  -0.000008  -0.000001  -0.000002   0.000000   0.000000
    12  H    0.000000  -0.000021   0.000219   0.000022   0.000008   0.000000
    13  H    0.000000   0.000365   0.000006   0.000353   0.000001   0.000000
    14  H    0.000000   0.000022   0.000006  -0.000026   0.000228   0.000000
    15  H   -0.000009   0.001901  -0.003234   0.001870  -0.003143   0.000004
    16  H   -0.002863   0.000004  -0.000014   0.001928  -0.002474  -0.003345
    17  H   -0.001719  -0.002453  -0.001962  -0.000007   0.000002   0.000001
    18  H   -0.002812   0.001952  -0.002744   0.000005  -0.000011  -0.000002
    19  H    0.644929  -0.000002  -0.000029  -0.000001  -0.000032   0.000001
    20  H   -0.000002   0.642200  -0.023710   0.000227  -0.000008   0.000000
    21  H   -0.000029  -0.023710   0.640606  -0.000004  -0.000031   0.000000
    22  H   -0.000001   0.000227  -0.000004   0.635723  -0.024960  -0.000006
    23  H   -0.000032  -0.000008  -0.000031  -0.024960   0.648370   0.000608
    24  H    0.000001   0.000000   0.000000  -0.000006   0.000608   0.609707
    25  H    0.001756  -0.000667   0.000002  -0.000576   0.000000  -0.000007
    26  H    0.000433   0.000000   0.000000  -0.000002   0.000000   0.000009
    27  H    0.000005   0.000001   0.000000   0.000022  -0.000002   0.000067
    28  H    0.000010   0.000001   0.000000   0.000001   0.000000  -0.000003
    29  H    0.000408  -0.000001   0.000000   0.000000   0.000000   0.000000
    30  H    0.000024   0.000036   0.000001   0.000001   0.000000   0.000000
    31  H    0.000000  -0.000002   0.000000   0.000001   0.000000   0.000000
             25         26         27         28         29         30
     1  C    0.000004   0.000000   0.000000   0.000000   0.000000   0.000000
     2  C    0.000023   0.000000   0.000000   0.000000   0.000000  -0.000001
     3  C   -0.001364   0.000002  -0.000156  -0.000001   0.000010  -0.000002
     4  C   -0.001314   0.000013  -0.000002  -0.000013  -0.000053  -0.001411
     5  C   -0.022367  -0.002764  -0.000640   0.001052  -0.002467  -0.001008
     6  C   -0.000554   0.000000   0.000001   0.000000   0.000004  -0.000017
     7  C   -0.000497   0.000002  -0.000014   0.000000   0.000000   0.000001
     8  O    0.000041  -0.000090  -0.000077   0.000034   0.000000   0.000000
     9  C    0.380830  -0.020785  -0.019557  -0.019751  -0.020730  -0.019582
    10  C   -0.024915   0.382400   0.382919   0.381459  -0.001368   0.001386
    11  C   -0.024856  -0.001020   0.001394  -0.004724   0.381771   0.382466
    12  H    0.000000   0.000000   0.000000   0.000000   0.000000   0.000000
    13  H    0.000001   0.000000   0.000000   0.000000   0.000000   0.000000
    14  H    0.000000   0.000000   0.000000   0.000000   0.000000   0.000000
    15  H   -0.000003   0.000000   0.000000   0.000000   0.000000   0.000000
    16  H   -0.000006  -0.000009   0.000008   0.000001  -0.000001   0.000000
    17  H    0.000050   0.000001   0.000000  -0.000001  -0.000006  -0.001424
    18  H   -0.000011  -0.000001   0.000000   0.000000  -0.000010   0.000017
    19  H    0.001756   0.000433   0.000005   0.000010   0.000408   0.000024
    20  H   -0.000667   0.000000   0.000001   0.000001  -0.000001   0.000036
    21  H    0.000002   0.000000   0.000000   0.000000   0.000000   0.000001
    22  H   -0.000576  -0.000002   0.000022   0.000001   0.000000   0.000001
    23  H    0.000000   0.000000  -0.000002   0.000000   0.000000   0.000000
    24  H   -0.000007   0.000009   0.000067  -0.000003   0.000000   0.000000
    25  H    0.655343   0.001891  -0.003648  -0.001060   0.001906  -0.003074
    26  H    0.001891   0.626569  -0.020403  -0.021940   0.000233  -0.000011
    27  H   -0.003648  -0.020403   0.617457  -0.023182  -0.000004  -0.000040
    28  H   -0.001060  -0.021940  -0.023182   0.640318   0.000021   0.000083
    29  H    0.001906   0.000233  -0.000004   0.000021   0.631025  -0.021555
    30  H   -0.003074  -0.000011  -0.000040   0.000083  -0.021555   0.635833
    31  H   -0.001505   0.000030   0.000071  -0.000242  -0.021534  -0.023010
             31
     1  C    0.000000
     2  C    0.000000
     3  C   -0.000011
     4  C    0.000045
     5  C    0.001068
     6  C   -0.000001
     7  C    0.000000
     8  O    0.000000
     9  C   -0.019254
    10  C   -0.004080
    11  C    0.382879
    12  H    0.000000
    13  H    0.000000
    14  H    0.000000
    15  H    0.000000
    16  H    0.000000
    17  H    0.000017
    18  H    0.000000
    19  H    0.000000
    20  H   -0.000002
    21  H    0.000000
    22  H    0.000001
    23  H    0.000000
    24  H    0.000000
    25  H   -0.001505
    26  H    0.000030
    27  H    0.000071
    28  H   -0.000242
    29  H   -0.021534
    30  H   -0.023010
    31  H    0.631626
 Mulliken atomic charges:
              1
     1  C   -0.171963
     2  C   -0.022817
     3  C    0.079492
     4  C   -0.102682
     5  C   -0.031543
     6  C   -0.101506
     7  C   -0.115671
     8  O   -0.313939
     9  C   -0.020288
    10  C   -0.172377
    11  C   -0.172970
    12  H    0.054502
    13  H    0.053734
    14  H    0.053493
    15  H    0.045744
    16  H    0.037508
    17  H    0.054966
    18  H    0.046990
    19  H    0.052270
    20  H    0.049525
    21  H    0.050595
    22  H    0.054717
    23  H    0.044001
    24  H    0.176944
    25  H    0.044576
    26  H    0.055441
    27  H    0.065782
    28  H    0.047937
    29  H    0.052353
    30  H    0.051289
    31  H    0.053898
 Sum of Mulliken atomic charges =   0.00000
 Mulliken charges with hydrogens summed into heavy atoms:
              1
     1  C   -0.010235
     2  C    0.022927
     3  C    0.117000
     4  C   -0.000727
     5  C    0.020727
     6  C   -0.001386
     7  C   -0.016954
     8  O   -0.136995
     9  C    0.024288
    10  C   -0.003217
    11  C   -0.015430
 Sum of Mulliken charges with hydrogens summed into heavy atoms =   0.00000
 Electronic spatial extent (au):  <R**2>=           2020.4385
 Charge=              0.0000 electrons
 Dipole moment (field-independent basis, Debye):
    X=              1.4477    Y=             -0.0793    Z=              0.2005  Tot=              1.4637
 Quadrupole moment (field-independent basis, Debye-Ang):
   XX=            -69.4574   YY=            -66.3077   ZZ=            -67.0963
   XY=              3.5879   XZ=              0.7647   YZ=              0.2595
 Traceless Quadrupole moment (field-independent basis, Debye-Ang):
   XX=             -1.8370   YY=              1.3128   ZZ=              0.5242
   XY=              3.5879   XZ=              0.7647   YZ=              0.2595
 Octapole moment (field-independent basis, Debye-Ang**2):
  XXX=             -3.4679  YYY=             25.5000  ZZZ=              1.9528  XYY=              9.4680
  XXY=              1.2758  XXZ=              2.9126  XZZ=             -2.3409  YZZ=              4.4640
  YYZ=              1.5452  XYZ=              0.6001
 Hexadecapole moment (field-independent basis, Debye-Ang**3):
 XXXX=          -1520.2657 YYYY=           -656.1364 ZZZZ=           -339.3861 XXXY=             -5.6505
 XXXZ=              3.6820 YYYX=              7.9570 YYYZ=              7.1810 ZZZX=              2.0299
 ZZZY=              7.6186 XXYY=           -377.9784 XXZZ=           -307.2993 YYZZ=           -175.8772
 XXYZ=              0.8130 YYXZ=              3.2007 ZZXY=             -0.5478
 N-N= 6.983773962837D+02 E-N=-2.468834440497D+03  KE= 4.555116552404D+02
 ******************************Gaussian NBO Version 3.1******************************
             N A T U R A L   A T O M I C   O R B I T A L   A N D
          N A T U R A L   B O N D   O R B I T A L   A N A L Y S I S
 ******************************Gaussian NBO Version 3.1******************************
       /RESON  / : Allow strongly delocalized NBO set
       /NLMO   / : Form Natural Localized Molecular Orbitals
       /NMR /    : Analyze NMR Sheilding Tensor 

 Analyzing the SCF density

 Job title: comment                                                         

 Storage needed:     19864 in NPA,     23691 in NBO,     45933 in NLMO (  33549317 available)


 NATURAL POPULATIONS:  Natural atomic orbital occupancies 
                                                          
   NAO  Atom  No  lang   Type(AO)    Occupancy      Energy
 ----------------------------------------------------------
     1    C    1  S      Cor( 1S)     1.99997     -10.96700
     2    C    1  S      Val( 2S)     1.07958      -0.18340
     3    C    1  px     Val( 2p)     1.01042       0.08320
     4    C    1  py     Val( 2p)     1.02828       0.08199
     5    C    1  pz     Val( 2p)     1.00926       0.08522

     6    C    2  S      Cor( 1S)     1.99997     -10.99211
     7    C    2  S      Val( 2S)     1.07975      -0.19488
     8    C    2  px     Val( 2p)     0.96266       0.10390
     9    C    2  py     Val( 2p)     0.95792       0.10773
    10    C    2  pz     Val( 2p)     0.98311       0.10136

    11    C    3  S      Cor( 1S)     1.99989     -11.03473
    12    C    3  S      Val( 2S)     1.08706      -0.21590
    13    C    3  px     Val( 2p)     0.91546       0.10349
    14    C    3  py     Val( 2p)     0.88057       0.10776
    15    C    3  pz     Val( 2p)     0.97083       0.09211

    16    C    4  S      Cor( 1S)     1.99995     -10.97525
    17    C    4  S      Val( 2S)     1.08581      -0.19129
    18    C    4  px     Val( 2p)     0.98446       0.09565
    19    C    4  py     Val( 2p)     1.00057       0.09442
    20    C    4  pz     Val( 2p)     0.99422       0.09485

    21    C    5  S      Cor( 1S)     1.99995     -10.99011
    22    C    5  S      Val( 2S)     1.10362      -0.21202
    23    C    5  px     Val( 2p)     0.96752       0.10939
    24    C    5  py     Val( 2p)     0.95474       0.10502
    25    C    5  pz     Val( 2p)     0.98178       0.09991

    26    C    6  S      Cor( 1S)     1.99996     -10.97542
    27    C    6  S      Val( 2S)     1.08370      -0.18936
    28    C    6  px     Val( 2p)     0.98906       0.09496
    29    C    6  py     Val( 2p)     0.98673       0.09529
    30    C    6  pz     Val( 2p)     1.00469       0.09398

    31    C    7  S      Cor( 1S)     1.99996     -10.97597
    32    C    7  S      Val( 2S)     1.09290      -0.20005
    33    C    7  px     Val( 2p)     0.99429       0.08629
    34    C    7  py     Val( 2p)     0.99691       0.08730
    35    C    7  pz     Val( 2p)     1.00819       0.08696

    36    O    8  S      Cor( 1S)     1.99999     -20.13995
    37    O    8  S      Val( 2S)     1.74569      -0.99575
    38    O    8  px     Val( 2p)     1.51443      -0.19541
    39    O    8  py     Val( 2p)     1.12955      -0.01884
    40    O    8  pz     Val( 2p)     1.94532      -0.35726

    41    C    9  S      Cor( 1S)     1.99995     -10.98625
    42    C    9  S      Val( 2S)     1.08620      -0.19208
    43    C    9  px     Val( 2p)     0.96630       0.11407
    44    C    9  py     Val( 2p)     0.95422       0.11516
    45    C    9  pz     Val( 2p)     0.97128       0.11451

    46    C   10  S      Cor( 1S)     1.99997     -10.95007
    47    C   10  S      Val( 2S)     1.08125      -0.16782
    48    C   10  px     Val( 2p)     1.00869       0.10151
    49    C   10  py     Val( 2p)     1.01591       0.09832
    50    C   10  pz     Val( 2p)     1.02352       0.10124

    51    C   11  S      Cor( 1S)     1.99997     -10.95963
    52    C   11  S      Val( 2S)     1.08203      -0.17851
    53    C   11  px     Val( 2p)     1.01751       0.08962
    54    C   11  py     Val( 2p)     1.00023       0.09305
    55    C   11  pz     Val( 2p)     1.02861       0.08848

    56    H   12  S      Val( 1S)     0.96279       0.07314

    57    H   13  S      Val( 1S)     0.96358       0.07263

    58    H   14  S      Val( 1S)     0.96373       0.07216

    59    H   15  S      Val( 1S)     0.97852       0.06119

    60    H   16  S      Val( 1S)     0.99806       0.04698

    61    H   17  S      Val( 1S)     0.96682       0.07581

    62    H   18  S      Val( 1S)     0.97392       0.06753

    63    H   19  S      Val( 1S)     0.97437       0.07088

    64    H   20  S      Val( 1S)     0.97158       0.07117

    65    H   21  S      Val( 1S)     0.97005       0.06928

    66    H   22  S      Val( 1S)     0.96618       0.07127

    67    H   23  S      Val( 1S)     0.97554       0.05902

    68    H   24  S      Val( 1S)     0.81030       0.07486

    69    H   25  S      Val( 1S)     0.98130       0.07137

    70    H   26  S      Val( 1S)     0.96202       0.09116

    71    H   27  S      Val( 1S)     0.95310       0.10201

    72    H   28  S      Val( 1S)     0.96894       0.08345

    73    H   29  S      Val( 1S)     0.96511       0.07790

    74    H   30  S      Val( 1S)     0.96632       0.07979

    75    H   31  S      Val( 1S)     0.96341       0.07929


 Summary of Natural Population Analysis:                  
                                                          
                                       Natural Population 
                Natural  -----------------------------------------------
    Atom  No    Charge         Core      Valence    Rydberg      Total
 -----------------------------------------------------------------------
      C    1   -0.12752      1.99997     4.12754    0.00000     6.12752
      C    2    0.01660      1.99997     3.98343    0.00000     5.98340
      C    3    0.14619      1.99989     3.85392    0.00000     5.85381
      C    4   -0.06501      1.99995     4.06506    0.00000     6.06501
      C    5   -0.00761      1.99995     4.00766    0.00000     6.00761
      C    6   -0.06415      1.99996     4.06419    0.00000     6.06415
      C    7   -0.09225      1.99996     4.09228    0.00000     6.09225
      O    8   -0.33498      1.99999     6.33499    0.00000     8.33498
      C    9    0.02205      1.99995     3.97799    0.00000     5.97795
      C   10   -0.12934      1.99997     4.12937    0.00000     6.12934
      C   11   -0.12836      1.99997     4.12839    0.00000     6.12836
      H   12    0.03721      0.00000     0.96279    0.00000     0.96279
      H   13    0.03642      0.00000     0.96358    0.00000     0.96358
      H   14    0.03627      0.00000     0.96373    0.00000     0.96373
      H   15    0.02148      0.00000     0.97852    0.00000     0.97852
      H   16    0.00194      0.00000     0.99806    0.00000     0.99806
      H   17    0.03318      0.00000     0.96682    0.00000     0.96682
      H   18    0.02608      0.00000     0.97392    0.00000     0.97392
      H   19    0.02563      0.00000     0.97437    0.00000     0.97437
      H   20    0.02842      0.00000     0.97158    0.00000     0.97158
      H   21    0.02995      0.00000     0.97005    0.00000     0.97005
      H   22    0.03382      0.00000     0.96618    0.00000     0.96618
      H   23    0.02446      0.00000     0.97554    0.00000     0.97554
      H   24    0.18970      0.00000     0.81030    0.00000     0.81030
      H   25    0.01870      0.00000     0.98130    0.00000     0.98130
      H   26    0.03798      0.00000     0.96202    0.00000     0.96202
      H   27    0.04690      0.00000     0.95310    0.00000     0.95310
      H   28    0.03106      0.00000     0.96894    0.00000     0.96894
      H   29    0.03489      0.00000     0.96511    0.00000     0.96511
      H   30    0.03368      0.00000     0.96632    0.00000     0.96632
      H   31    0.03659      0.00000     0.96341    0.00000     0.96341
 =======================================================================
   * Total *    0.00000     21.99953    66.00047    0.00000    88.00000

                                 Natural Population      
 --------------------------------------------------------
   Core                      21.99953 ( 99.9979% of  22)
   Valence                   66.00047 (100.0007% of  66)
   Natural Minimal Basis     88.00000 (100.0000% of  88)
   Natural Rydberg Basis      0.00000 (  0.0000% of  88)
 --------------------------------------------------------

    Atom  No          Natural Electron Configuration
 ----------------------------------------------------------------------------
      C    1      [core]2S( 1.08)2p( 3.05)
      C    2      [core]2S( 1.08)2p( 2.90)
      C    3      [core]2S( 1.09)2p( 2.77)
      C    4      [core]2S( 1.09)2p( 2.98)
      C    5      [core]2S( 1.10)2p( 2.90)
      C    6      [core]2S( 1.08)2p( 2.98)
      C    7      [core]2S( 1.09)2p( 3.00)
      O    8      [core]2S( 1.75)2p( 4.59)
      C    9      [core]2S( 1.09)2p( 2.89)
      C   10      [core]2S( 1.08)2p( 3.05)
      C   11      [core]2S( 1.08)2p( 3.05)
      H   12            1S( 0.96)
      H   13            1S( 0.96)
      H   14            1S( 0.96)
      H   15            1S( 0.98)
      H   16            1S( 1.00)
      H   17            1S( 0.97)
      H   18            1S( 0.97)
      H   19            1S( 0.97)
      H   20            1S( 0.97)
      H   21            1S( 0.97)
      H   22            1S( 0.97)
      H   23            1S( 0.98)
      H   24            1S( 0.81)
      H   25            1S( 0.98)
      H   26            1S( 0.96)
      H   27            1S( 0.95)
      H   28            1S( 0.97)
      H   29            1S( 0.97)
      H   30            1S( 0.97)
      H   31            1S( 0.96)


 NATURAL BOND ORBITAL ANALYSIS:

                       Occupancies       Lewis Structure    Low   High
           Occ.    -------------------  -----------------   occ   occ
  Cycle   Thresh.   Lewis   Non-Lewis     CR  BD  3C  LP    (L)   (NL)   Dev
 =============================================================================
   1(1)    1.90    87.63496   0.36504     11  31   0   2     0      0    0.02
 -----------------------------------------------------------------------------

 Structure accepted: No low occupancy Lewis orbitals

 --------------------------------------------------------
   Core                     21.99953 ( 99.998% of  22)
   Valence Lewis            65.63543 ( 99.448% of  66)
  ==================       ============================
   Total Lewis              87.63496 ( 99.585% of  88)
  -----------------------------------------------------
   Valence non-Lewis         0.36504 (  0.415% of  88)
   Rydberg non-Lewis         0.00000 (  0.000% of  88)
  ==================       ============================
   Total non-Lewis           0.36504 (  0.415% of  88)
 --------------------------------------------------------


       (Occupancy)   Bond orbital/ Coefficients/ Hybrids
 ---------------------------------------------------------------------------------
     1. (1.98924) BD ( 1) C   1 - C   2  
                ( 50.83%)   0.7130* C   1 s( 25.74%)p 2.89( 74.26%)
                                            0.0001  0.5073 -0.6060  0.1085  0.6030
                ( 49.17%)   0.7012* C   2 s( 25.21%)p 2.97( 74.79%)
                                            0.0000  0.5021  0.5903 -0.1139 -0.6216
     2. (1.99501) BD ( 1) C   1 - H  12  
                ( 51.87%)   0.7202* C   1 s( 24.73%)p 3.04( 75.27%)
                                            0.0000  0.4973  0.5313 -0.6455  0.2318
                ( 48.13%)   0.6937* H  12 s(100.00%)
                                            1.0000
     3. (1.99537) BD ( 1) C   1 - H  13  
                ( 51.86%)   0.7202* C   1 s( 24.82%)p 3.03( 75.18%)
                                            0.0000  0.4982 -0.3724 -0.1950 -0.7583
                ( 48.14%)   0.6938* H  13 s(100.00%)
                                            1.0000
     4. (1.99503) BD ( 1) C   1 - H  14  
                ( 51.83%)   0.7199* C   1 s( 24.71%)p 3.05( 75.29%)
                                            0.0000  0.4971  0.4601  0.7304 -0.0873
                ( 48.17%)   0.6941* H  14 s(100.00%)
                                            1.0000
     5. (1.98525) BD ( 1) C   2 - C   6  
                ( 49.76%)   0.7054* C   2 s( 25.21%)p 2.97( 74.79%)
                                            0.0000  0.5021 -0.4577 -0.7264  0.1040
                ( 50.24%)   0.7088* C   6 s( 25.30%)p 2.95( 74.70%)
                                            0.0001  0.5030  0.4300  0.7401 -0.1199
     6. (1.98366) BD ( 1) C   2 - C   7  
                ( 49.31%)   0.7022* C   2 s( 25.12%)p 2.98( 74.88%)
                                            0.0000  0.5012 -0.5296  0.6491 -0.2170
                ( 50.69%)   0.7119* C   7 s( 25.55%)p 2.91( 74.45%)
                                            0.0001  0.5055  0.5070 -0.6681  0.2028
     7. (1.98499) BD ( 1) C   2 - H  15  
                ( 51.00%)   0.7142* C   2 s( 24.46%)p 3.09( 75.54%)
                                            0.0000  0.4946  0.4020  0.1953  0.7454
                ( 49.00%)   0.7000* H  15 s(100.00%)
                                            1.0000
     8. (1.98092) BD ( 1) C   3 - C   5  
                ( 50.75%)   0.7124* C   3 s( 26.69%)p 2.75( 73.31%)
                                            0.0000  0.5167 -0.5013 -0.6940  0.0104
                ( 49.25%)   0.7018* C   5 s( 24.87%)p 3.02( 75.13%)
                                            0.0000  0.4987  0.4591  0.7275 -0.1065
     9. (1.98796) BD ( 1) C   3 - C   7  
                ( 49.26%)   0.7019* C   3 s( 25.60%)p 2.91( 74.40%)
                                            0.0000  0.5060  0.6297 -0.0869 -0.5831
                ( 50.74%)   0.7123* C   7 s( 25.11%)p 2.98( 74.89%)
                                            0.0000  0.5011 -0.6446  0.0641  0.5738
    10. (1.98862) BD ( 1) C   3 - O   8  
                ( 40.98%)   0.6402* C   3 s( 22.71%)p 3.40( 77.29%)
                                            0.0000  0.4765 -0.4846  0.7016 -0.2143
                ( 59.02%)   0.7682* O   8 s( 16.89%)p 4.92( 83.11%)
                                            0.0000  0.4110  0.5559 -0.6970  0.1904
    11. (1.98826) BD ( 1) C   3 - H  16  
                ( 50.39%)   0.7098* C   3 s( 25.00%)p 3.00( 75.00%)
                                            0.0000  0.5000  0.3427  0.1364  0.7836
                ( 49.61%)   0.7044* H  16 s(100.00%)
                                            1.0000
    12. (1.98224) BD ( 1) C   4 - C   5  
                ( 50.43%)   0.7101* C   4 s( 25.33%)p 2.95( 74.67%)
                                            0.0001  0.5033 -0.5374  0.6185 -0.2744
                ( 49.57%)   0.7041* C   5 s( 24.92%)p 3.01( 75.08%)
                                            0.0000  0.4992  0.5333 -0.6464  0.2204
    13. (1.99010) BD ( 1) C   4 - C   6  
                ( 49.96%)   0.7068* C   4 s( 25.27%)p 2.96( 74.73%)
                                            0.0000  0.5027  0.6450 -0.1000 -0.5668
                ( 50.04%)   0.7074* C   6 s( 25.21%)p 2.97( 74.79%)
                                            0.0000  0.5021 -0.6563  0.1289  0.5482
    14. (1.98951) BD ( 1) C   4 - H  17  
                ( 51.66%)   0.7188* C   4 s( 25.20%)p 2.97( 74.80%)
                                            0.0000  0.5020 -0.4311 -0.7448  0.0862
                ( 48.34%)   0.6952* H  17 s(100.00%)
                                            1.0000
    15. (1.98975) BD ( 1) C   4 - H  18  
                ( 51.29%)   0.7162* C   4 s( 24.19%)p 3.13( 75.81%)
                                            0.0000  0.4919  0.3306  0.2295  0.7721
                ( 48.71%)   0.6979* H  18 s(100.00%)
                                            1.0000
    16. (1.97962) BD ( 1) C   5 - C   9  
                ( 50.27%)   0.7090* C   5 s( 25.57%)p 2.91( 74.43%)
                                            0.0001  0.5056 -0.4081 -0.1965 -0.7343
                ( 49.73%)   0.7052* C   9 s( 25.44%)p 2.93( 74.56%)
                                            0.0001  0.5044  0.4363  0.2176  0.7126
    17. (1.98432) BD ( 1) C   5 - H  19  
                ( 51.19%)   0.7154* C   5 s( 24.65%)p 3.06( 75.35%)
                                            0.0000  0.4965 -0.5817  0.1194  0.6332
                ( 48.81%)   0.6987* H  19 s(100.00%)
                                            1.0000
    18. (1.99033) BD ( 1) C   6 - H  20  
                ( 51.46%)   0.7173* C   6 s( 24.76%)p 3.04( 75.24%)
                                            0.0000  0.4976 -0.3094 -0.2815 -0.7599
                ( 48.54%)   0.6967* H  20 s(100.00%)
                                            1.0000
    19. (1.98948) BD ( 1) C   6 - H  21  
                ( 51.45%)   0.7173* C   6 s( 24.74%)p 3.04( 75.26%)
                                            0.0000  0.4974  0.5372 -0.5970  0.3281
                ( 48.55%)   0.6968* H  21 s(100.00%)
                                            1.0000
    20. (1.98975) BD ( 1) C   7 - H  22  
                ( 51.72%)   0.7192* C   7 s( 24.77%)p 3.04( 75.23%)
                                            0.0000  0.4977 -0.3309 -0.1154 -0.7934
                ( 48.28%)   0.6948* H  22 s(100.00%)
                                            1.0000
    21. (1.98842) BD ( 1) C   7 - H  23  
                ( 51.18%)   0.7154* C   7 s( 24.57%)p 3.07( 75.43%)
                                            0.0000  0.4957  0.4669  0.7322  0.0097
                ( 48.82%)   0.6987* H  23 s(100.00%)
                                            1.0000
    22. (1.98849) BD ( 1) O   8 - H  24  
                ( 59.48%)   0.7712* O   8 s( 16.83%)p 4.94( 83.17%)
                                            0.0000  0.4103  0.5820  0.7020 -0.0151
                ( 40.52%)   0.6365* H  24 s(100.00%)
                                            1.0000
    23. (1.98911) BD ( 1) C   9 - C  10  
                ( 49.45%)   0.7032* C   9 s( 25.21%)p 2.97( 74.79%)
                                            0.0000  0.5021 -0.5626  0.6250 -0.2018
                ( 50.55%)   0.7110* C  10 s( 25.78%)p 2.88( 74.22%)
                                            0.0001  0.5077  0.5680 -0.6002  0.2435
    24. (1.98887) BD ( 1) C   9 - C  11  
                ( 48.89%)   0.6992* C   9 s( 24.74%)p 3.04( 75.26%)
                                            0.0000  0.4974 -0.4289 -0.7415  0.1369
                ( 51.11%)   0.7149* C  11 s( 25.82%)p 2.87( 74.18%)
                                            0.0001  0.5082  0.4371  0.7363 -0.0925
    25. (1.98498) BD ( 1) C   9 - H  25  
                ( 50.88%)   0.7133* C   9 s( 24.60%)p 3.06( 75.40%)
                                            0.0000  0.4960  0.5560 -0.1103 -0.6578
                ( 49.12%)   0.7008* H  25 s(100.00%)
                                            1.0000
    26. (1.99563) BD ( 1) C  10 - H  26  
                ( 51.94%)   0.7207* C  10 s( 25.02%)p 3.00( 74.98%)
                                            0.0000  0.5002 -0.4741  0.2502  0.6800
                ( 48.06%)   0.6932* H  26 s(100.00%)
                                            1.0000
    27. (1.99543) BD ( 1) C  10 - H  27  
                ( 52.40%)   0.7239* C  10 s( 24.77%)p 3.04( 75.23%)
                                            0.0000  0.4977  0.4194  0.6857 -0.3259
                ( 47.60%)   0.6899* H  27 s(100.00%)
                                            1.0000
    28. (1.99423) BD ( 1) C  10 - H  28  
                ( 51.56%)   0.7180* C  10 s( 24.44%)p 3.09( 75.56%)
                                            0.0000  0.4943 -0.5260 -0.3270 -0.6100
                ( 48.44%)   0.6960* H  28 s(100.00%)
                                            1.0000
    29. (1.99572) BD ( 1) C  11 - H  29  
                ( 51.79%)   0.7197* C  11 s( 24.88%)p 3.02( 75.12%)
                                            0.0000  0.4988 -0.4964  0.0396  0.7094
                ( 48.21%)   0.6943* H  29 s(100.00%)
                                            1.0000
    30. (1.99470) BD ( 1) C  11 - H  30  
                ( 51.71%)   0.7191* C  11 s( 24.61%)p 3.06( 75.39%)
                                            0.0000  0.4961  0.5557 -0.6627  0.0770
                ( 48.29%)   0.6949* H  30 s(100.00%)
                                            1.0000
    31. (1.99421) BD ( 1) C  11 - H  31  
                ( 51.83%)   0.7199* C  11 s( 24.69%)p 3.05( 75.31%)
                                            0.0000  0.4968 -0.5036 -0.1311 -0.6945
                ( 48.17%)   0.6941* H  31 s(100.00%)
                                            1.0000
    32. (1.99997) CR ( 1) C   1           s(100.00%)
                                            1.0000  0.0000  0.0001  0.0000 -0.0001
    33. (1.99997) CR ( 1) C   2           s(100.00%)
                                            1.0000  0.0000  0.0001  0.0000  0.0000
    34. (1.99989) CR ( 1) C   3           s(100.00%)
                                            1.0000  0.0000  0.0000  0.0000  0.0000
    35. (1.99995) CR ( 1) C   4           s(100.00%)
                                            1.0000 -0.0001  0.0000 -0.0001  0.0001
    36. (1.99995) CR ( 1) C   5           s(100.00%)
                                            1.0000 -0.0001  0.0000  0.0000  0.0001
    37. (1.99996) CR ( 1) C   6           s(100.00%)
                                            1.0000  0.0000  0.0000 -0.0001  0.0000
    38. (1.99996) CR ( 1) C   7           s(100.00%)
                                            1.0000  0.0000  0.0000  0.0001  0.0000
    39. (1.99999) CR ( 1) O   8           s(100.00%)
                                            1.0000  0.0000  0.0000  0.0000  0.0000
    40. (1.99995) CR ( 1) C   9           s(100.00%)
                                            1.0000  0.0000 -0.0001  0.0000  0.0000
    41. (1.99997) CR ( 1) C  10           s(100.00%)
                                            1.0000  0.0000 -0.0001  0.0000  0.0000
    42. (1.99997) CR ( 1) C  11           s(100.00%)
                                            1.0000  0.0000 -0.0001 -0.0001  0.0000
    43. (1.99194) LP ( 1) O   8           s( 66.25%)p 0.51( 33.75%)
                                            0.0000  0.8139 -0.5708 -0.0048 -0.1081
    44. (1.97431) LP ( 2) O   8           s(  0.03%)p99.99( 99.97%)
                                            0.0000  0.0163 -0.1627  0.1464  0.9756
    45. (0.01003) BD*( 1) C   1 - C   2  
                ( 49.17%)   0.7012* C   1 s( 25.74%)p 2.89( 74.26%)
                                           -0.0001 -0.5073  0.6060 -0.1085 -0.6030
                ( 50.83%)  -0.7130* C   2 s( 25.21%)p 2.97( 74.79%)
                                            0.0000 -0.5021 -0.5903  0.1139  0.6216
    46. (0.00514) BD*( 1) C   1 - H  12  
                ( 48.13%)   0.6937* C   1 s( 24.73%)p 3.04( 75.27%)
                                            0.0000 -0.4973 -0.5313  0.6455 -0.2318
                ( 51.87%)  -0.7202* H  12 s(100.00%)
                                           -1.0000
    47. (0.00589) BD*( 1) C   1 - H  13  
                ( 48.14%)   0.6938* C   1 s( 24.82%)p 3.03( 75.18%)
                                            0.0000 -0.4982  0.3724  0.1950  0.7583
                ( 51.86%)  -0.7202* H  13 s(100.00%)
                                           -1.0000
    48. (0.00513) BD*( 1) C   1 - H  14  
                ( 48.17%)   0.6941* C   1 s( 24.71%)p 3.05( 75.29%)
                                            0.0000 -0.4971 -0.4601 -0.7304  0.0873
                ( 51.83%)  -0.7199* H  14 s(100.00%)
                                           -1.0000
    49. (0.01620) BD*( 1) C   2 - C   6  
                ( 50.24%)   0.7088* C   2 s( 25.21%)p 2.97( 74.79%)
                                            0.0000  0.5021 -0.4577 -0.7264  0.1040
                ( 49.76%)  -0.7054* C   6 s( 25.30%)p 2.95( 74.70%)
                                            0.0001  0.5030  0.4300  0.7401 -0.1199
    50. (0.01566) BD*( 1) C   2 - C   7  
                ( 50.69%)   0.7119* C   2 s( 25.12%)p 2.98( 74.88%)
                                            0.0000  0.5012 -0.5296  0.6491 -0.2170
                ( 49.31%)  -0.7022* C   7 s( 25.55%)p 2.91( 74.45%)
                                            0.0001  0.5055  0.5070 -0.6681  0.2028
    51. (0.01167) BD*( 1) C   2 - H  15  
                ( 49.00%)   0.7000* C   2 s( 24.46%)p 3.09( 75.54%)
                                            0.0000 -0.4946 -0.4020 -0.1953 -0.7454
                ( 51.00%)  -0.7142* H  15 s(100.00%)
                                           -1.0000
    52. (0.02770) BD*( 1) C   3 - C   5  
                ( 49.25%)   0.7018* C   3 s( 26.69%)p 2.75( 73.31%)
                                            0.0000 -0.5167  0.5013  0.6940 -0.0104
                ( 50.75%)  -0.7124* C   5 s( 24.87%)p 3.02( 75.13%)
                                            0.0000 -0.4987 -0.4591 -0.7275  0.1065
    53. (0.02804) BD*( 1) C   3 - C   7  
                ( 50.74%)   0.7123* C   3 s( 25.60%)p 2.91( 74.40%)
                                            0.0000  0.5060  0.6297 -0.0869 -0.5831
                ( 49.26%)  -0.7019* C   7 s( 25.11%)p 2.98( 74.89%)
                                            0.0000  0.5011 -0.6446  0.0641  0.5738
    54. (0.02239) BD*( 1) C   3 - O   8  
                ( 59.02%)   0.7682* C   3 s( 22.71%)p 3.40( 77.29%)
                                            0.0000  0.4765 -0.4846  0.7016 -0.2143
                ( 40.98%)  -0.6402* O   8 s( 16.89%)p 4.92( 83.11%)
                                            0.0000  0.4110  0.5559 -0.6970  0.1904
    55. (0.02313) BD*( 1) C   3 - H  16  
                ( 49.61%)   0.7044* C   3 s( 25.00%)p 3.00( 75.00%)
                                            0.0000 -0.5000 -0.3427 -0.1364 -0.7836
                ( 50.39%)  -0.7098* H  16 s(100.00%)
                                           -1.0000
    56. (0.01517) BD*( 1) C   4 - C   5  
                ( 49.57%)   0.7041* C   4 s( 25.33%)p 2.95( 74.67%)
                                           -0.0001 -0.5033  0.5374 -0.6185  0.2744
                ( 50.43%)  -0.7101* C   5 s( 24.92%)p 3.01( 75.08%)
                                            0.0000 -0.4992 -0.5333  0.6464 -0.2204
    57. (0.01194) BD*( 1) C   4 - C   6  
                ( 50.04%)   0.7074* C   4 s( 25.27%)p 2.96( 74.73%)
                                            0.0000  0.5027  0.6450 -0.1000 -0.5668
                ( 49.96%)  -0.7068* C   6 s( 25.21%)p 2.97( 74.79%)
                                            0.0000  0.5021 -0.6563  0.1289  0.5482
    58. (0.00999) BD*( 1) C   4 - H  17  
                ( 48.34%)   0.6952* C   4 s( 25.20%)p 2.97( 74.80%)
                                            0.0000 -0.5020  0.4311  0.7448 -0.0862
                ( 51.66%)  -0.7188* H  17 s(100.00%)
                                           -1.0000
    59. (0.00916) BD*( 1) C   4 - H  18  
                ( 48.71%)   0.6979* C   4 s( 24.19%)p 3.13( 75.81%)
                                            0.0000 -0.4919 -0.3306 -0.2295 -0.7721
                ( 51.29%)  -0.7162* H  18 s(100.00%)
                                           -1.0000
    60. (0.02278) BD*( 1) C   5 - C   9  
                ( 49.73%)   0.7052* C   5 s( 25.57%)p 2.91( 74.43%)
                                           -0.0001 -0.5056  0.4081  0.1965  0.7343
                ( 50.27%)  -0.7090* C   9 s( 25.44%)p 2.93( 74.56%)
                                           -0.0001 -0.5044 -0.4363 -0.2176 -0.7126
    61. (0.01123) BD*( 1) C   5 - H  19  
                ( 48.81%)   0.6987* C   5 s( 24.65%)p 3.06( 75.35%)
                                            0.0000 -0.4965  0.5817 -0.1194 -0.6332
                ( 51.19%)  -0.7154* H  19 s(100.00%)
                                           -1.0000
    62. (0.01058) BD*( 1) C   6 - H  20  
                ( 48.54%)   0.6967* C   6 s( 24.76%)p 3.04( 75.24%)
                                            0.0000 -0.4976  0.3094  0.2815  0.7599
                ( 51.46%)  -0.7173* H  20 s(100.00%)
                                           -1.0000
    63. (0.00811) BD*( 1) C   6 - H  21  
                ( 48.55%)   0.6968* C   6 s( 24.74%)p 3.04( 75.26%)
                                            0.0000 -0.4974 -0.5372  0.5970 -0.3281
                ( 51.45%)  -0.7173* H  21 s(100.00%)
                                           -1.0000
    64. (0.01079) BD*( 1) C   7 - H  22  
                ( 48.28%)   0.6948* C   7 s( 24.77%)p 3.04( 75.23%)
                                            0.0000 -0.4977  0.3309  0.1154  0.7934
                ( 51.72%)  -0.7192* H  22 s(100.00%)
                                           -1.0000
    65. (0.00939) BD*( 1) C   7 - H  23  
                ( 48.82%)   0.6987* C   7 s( 24.57%)p 3.07( 75.43%)
                                            0.0000 -0.4957 -0.4669 -0.7322 -0.0097
                ( 51.18%)  -0.7154* H  23 s(100.00%)
                                           -1.0000
    66. (0.00774) BD*( 1) O   8 - H  24  
                ( 40.52%)   0.6365* O   8 s( 16.83%)p 4.94( 83.17%)
                                            0.0000 -0.4103 -0.5820 -0.7020  0.0151
                ( 59.48%)  -0.7712* H  24 s(100.00%)
                                           -1.0000
    67. (0.00982) BD*( 1) C   9 - C  10  
                ( 50.55%)   0.7110* C   9 s( 25.21%)p 2.97( 74.79%)
                                            0.0000  0.5021 -0.5626  0.6250 -0.2018
                ( 49.45%)  -0.7032* C  10 s( 25.78%)p 2.88( 74.22%)
                                            0.0001  0.5077  0.5680 -0.6002  0.2435
    68. (0.01006) BD*( 1) C   9 - C  11  
                ( 51.11%)   0.7149* C   9 s( 24.74%)p 3.04( 75.26%)
                                            0.0000  0.4974 -0.4289 -0.7415  0.1369
                ( 48.89%)  -0.6992* C  11 s( 25.82%)p 2.87( 74.18%)
                                            0.0001  0.5082  0.4371  0.7363 -0.0925
    69. (0.01243) BD*( 1) C   9 - H  25  
                ( 49.12%)   0.7008* C   9 s( 24.60%)p 3.06( 75.40%)
                                            0.0000 -0.4960 -0.5560  0.1103  0.6578
                ( 50.88%)  -0.7133* H  25 s(100.00%)
                                           -1.0000
    70. (0.00565) BD*( 1) C  10 - H  26  
                ( 48.06%)   0.6932* C  10 s( 25.02%)p 3.00( 74.98%)
                                            0.0000 -0.5002  0.4741 -0.2502 -0.6800
                ( 51.94%)  -0.7207* H  26 s(100.00%)
                                           -1.0000
    71. (0.00641) BD*( 1) C  10 - H  27  
                ( 47.60%)   0.6899* C  10 s( 24.77%)p 3.04( 75.23%)
                                            0.0000 -0.4977 -0.4194 -0.6857  0.3259
                ( 52.40%)  -0.7239* H  27 s(100.00%)
                                           -1.0000
    72. (0.00568) BD*( 1) C  10 - H  28  
                ( 48.44%)   0.6960* C  10 s( 24.44%)p 3.09( 75.56%)
                                            0.0000 -0.4943  0.5260  0.3270  0.6100
[...]

 Contributions to Isotropic shielding for atom    8 (   356.1041 ppm):
                         Standard Origin              Atomic Origin
 NLMO      Total    Paramagnetic  Diamagnetic   Paramagnetic  Diamagnetic
    6      -1.0803       -1.3047       0.2243        -1.1403       0.0599
    9      -0.3361       -0.1607      -0.1754        -1.0998       0.7638
   10      27.5602        9.5345      18.0256        16.9787      10.5814
   11      -0.3083       -0.4581       0.1497        -1.6373       1.3289
   21      -0.3941       -0.7085       0.3144        -1.3436       0.9494
   22      18.6840       10.0370       8.6470         4.2603      14.4237
   27      -0.3020       -0.9262       0.6243        -1.0191       0.7172
   39     271.1771       -0.0056     271.1828        -0.0038     271.1809
   43      34.3254       -1.0282      35.3535        -3.0651      37.3905
   44       5.5140      -33.3518      38.8658       -34.4488      39.9628
 Sum      354.8398      -18.3722     373.2120       -22.5188     377.3587

 Contributions to Isotropic shielding for atom    9 (   215.0380 ppm):
                         Standard Origin              Atomic Origin
 NLMO      Total    Paramagnetic  Diamagnetic   Paramagnetic  Diamagnetic
   10       0.1091       -0.4823       0.5914        -1.1307       1.2398
   16       4.4715       -8.2691      12.7406        -3.2411       7.7125
   17       0.4494       -0.0574       0.5068        -0.5861       1.0355
   23      -1.0927       -5.4496       4.3569        -8.8347       7.7420
   24      -1.5537       -4.6634       3.1097        -8.9960       7.4423
   25       7.6332       -5.2340      12.8673        -3.2351      10.8684
   26       0.8943       -0.3759       1.2702        -0.1837       1.0780
   27       0.6203       -0.7089       1.3292        -0.4098       1.0301
   29       0.9624       -0.3461       1.3085        -0.1072       1.0697
   30       0.7611       -0.5502       1.3112        -0.2145       0.9756
   40     199.9141        0.0005     199.9135         0.0001     199.9139
 Sum      213.1690      -26.1363     239.3053       -26.9389     240.1079

 Contributions to Isotropic shielding for atom   10 (   220.6554 ppm):
                         Standard Origin              Atomic Origin
 NLMO      Total    Paramagnetic  Diamagnetic   Paramagnetic  Diamagnetic
   10       0.1645       -0.4371       0.6016        -0.9833       1.1479
   23       4.3865      -10.4870      14.8735        -3.3915       7.7780
   24      -0.4891        0.1804      -0.6695        -1.2406       0.7516
   25       0.3513       -0.2411       0.5925        -0.6883       1.0396
   26       5.7256       -2.1688       7.8943        -5.4687      11.1942
   27       6.2879       -5.5059      11.7939        -5.0304      11.3184
   28       4.5276        0.6576       3.8700        -6.4662      10.9938
   31      -0.2958       -0.9991       0.7033        -1.2667       0.9709
   41     200.0738       -0.0036     200.0774         0.0022     200.0716
   43      -0.6506        0.0489      -0.6995         0.3626      -1.0131
 Sum      220.0818      -18.9557     239.0375       -24.1710     244.2528

 Contributions to Isotropic shielding for atom   11 (   220.7246 ppm):
                         Standard Origin              Atomic Origin
 NLMO      Total    Paramagnetic  Diamagnetic   Paramagnetic  Diamagnetic
   23      -0.4920        0.1947      -0.6867        -1.2618       0.7698
   24       4.6248      -11.3866      16.0114        -3.4393       8.0641
   25       0.3411       -0.1687       0.5098        -0.6956       1.0366
   28      -0.3452       -0.9913       0.6461        -1.3345       0.9893
   29       5.6459       -1.7323       7.3782        -5.4860      11.1319
   30       6.0022       -4.7153      10.7176        -5.0551      11.0573
   31       4.6332        0.4076       4.2255        -6.4803      11.1135
   42     200.0743       -0.0038     200.0781         0.0023     200.0720
 Sum      220.4843      -18.3958     238.8801       -23.7503     244.2346

 Contributions to Isotropic shielding for atom   12 (    32.4447 ppm):
                         Standard Origin              Atomic Origin
 NLMO      Total    Paramagnetic  Diamagnetic   Paramagnetic  Diamagnetic
    1       1.3371       -0.1729       1.5101         0.3423       0.9948
    2      26.3369        0.1182      26.2187         0.4408      25.8961
    3       1.9692        1.2355       0.7337         0.1288       1.8403
    4       1.9087        2.3407      -0.4319         0.0707       1.8381
    5      -0.1277        0.6165      -0.7442        -1.0604       0.9328
 Sum       31.4243        4.1379      27.2863        -0.0779      31.5021

 Contributions to Isotropic shielding for atom   13 (    32.6687 ppm):
                         Standard Origin              Atomic Origin
 NLMO      Total    Paramagnetic  Diamagnetic   Paramagnetic  Diamagnetic
    1       1.6845       -1.3269       3.0113         0.7923       0.8922
    2       1.9604        1.5909       0.3696         0.1328       1.8276
    3      26.3080        0.3478      25.9603         0.4133      25.8947
    4       1.9778        1.4023       0.5756         0.1521       1.8258
 Sum       31.9308        2.0140      29.9167         1.4905      30.4402

 Contributions to Isotropic shielding for atom   14 (    32.4942 ppm):
                         Standard Origin              Atomic Origin
 NLMO      Total    Paramagnetic  Diamagnetic   Paramagnetic  Diamagnetic
    1       1.3891       -0.3452       1.7343         0.3978       0.9913
    2       1.9054        2.3888      -0.4834         0.0638       1.8416
    3       1.9801        1.0950       0.8850         0.1395       1.8405
    4      26.3518        0.1469      26.2049         0.4303      25.9215
    6      -0.1162        0.5447      -0.6609        -1.0376       0.9214
 Sum       31.5102        3.8302      27.6800        -0.0061      31.5163

 Contributions to Isotropic shielding for atom   15 (    32.7990 ppm):
                         Standard Origin              Atomic Origin
 NLMO      Total    Paramagnetic  Diamagnetic   Paramagnetic  Diamagnetic
    1       0.7935        2.2976      -1.5040        -0.1639       0.9575
    5       1.3585        0.7430       0.6155         0.4251       0.9334
    6       1.4078        0.5240       0.8838         0.4955       0.9124
    7      26.5367       -0.0787      26.6154         0.4303      26.1064
 Sum       30.0966        3.4859      26.6107         1.1869      28.9096

 Contributions to Isotropic shielding for atom   16 (    31.9707 ppm):
                         Standard Origin              Atomic Origin
 NLMO      Total    Paramagnetic  Diamagnetic   Paramagnetic  Diamagnetic
    8       1.1225        0.1590       0.9635        -0.0715       1.1941
   10       0.4479        1.3874      -0.9395        -1.1818       1.6297
   11      26.8429        0.2458      26.5972         0.7414      26.1015
   12      -0.0152       -0.1002       0.0850        -1.0113       0.9961
   22       0.3508       -0.7178       1.0686        -0.5989       0.9497
 Sum       28.7489        0.9742      27.7747        -2.1221      30.8711

 Contributions to Isotropic shielding for atom   17 (    32.2646 ppm):
                         Standard Origin              Atomic Origin
 NLMO      Total    Paramagnetic  Diamagnetic   Paramagnetic  Diamagnetic
   12       1.2764        0.3832       0.8932         0.3667       0.9097
   13       1.0844        0.9780       0.1063         0.0790       1.0054
   14      26.3713        0.0524      26.3189         0.4794      25.8919
   15       1.9522        1.6740       0.2782         0.1475       1.8047
   24       0.0150       -0.5328       0.5478        -1.0371       1.0522
   30      -0.3820       -1.3323       0.9503        -1.0407       0.6587
 Sum       30.3172        1.2225      29.0947        -1.0053      31.3225

 Contributions to Isotropic shielding for atom   18 (    32.6633 ppm):
                         Standard Origin              Atomic Origin
 NLMO      Total    Paramagnetic  Diamagnetic   Paramagnetic  Diamagnetic
   12       1.4075        0.3785       1.0290         0.4139       0.9936
   13       1.1186        0.9259       0.1927         0.1420       0.9766
   14       1.9766        1.7011       0.2754         0.1379       1.8387
   15      26.4948        0.0416      26.4532         0.4297      26.0651
 Sum       30.9975        3.0471      27.9504         1.1234      29.8740

 Contributions to Isotropic shielding for atom   19 (    32.2218 ppm):
                         Standard Origin              Atomic Origin
 NLMO      Total    Paramagnetic  Diamagnetic   Paramagnetic  Diamagnetic
    8       1.1362        1.1716      -0.0354         0.1465       0.9898
   10       0.1407       -0.2904       0.4311        -1.3055       1.4462
   12       1.1179        1.2284      -0.1105         0.1004       1.0175
   16       1.0146        1.2479      -0.2333        -0.1278       1.1424
   17      26.4005       -0.0194      26.4199         0.4893      25.9111
   26      -0.0942       -1.1852       1.0910        -0.9747       0.8805
   29      -0.0729       -1.2232       1.1502        -0.9576       0.8846
 Sum       29.6428        0.9297      28.7131        -2.6294      32.2722

 Contributions to Isotropic shielding for atom   20 (    32.7702 ppm):
                         Standard Origin              Atomic Origin
 NLMO      Total    Paramagnetic  Diamagnetic   Paramagnetic  Diamagnetic
    3      -0.0553       -1.1428       1.0875        -0.9599       0.9046
    5       1.3174        0.3699       0.9476         0.4657       0.8517
   13       1.3487       -0.0399       1.3885         0.4150       0.9336
   16      -0.0096       -0.2492       0.2396        -1.0225       1.0129
   18      26.3978        0.2364      26.1614         0.4026      25.9952
   19       1.9474        1.7247       0.2227         0.1732       1.7742
 Sum       30.9465        0.8992      30.0473        -0.5258      31.4723

 Contributions to Isotropic shielding for atom   21 (    32.5362 ppm):
                         Standard Origin              Atomic Origin
 NLMO      Total    Paramagnetic  Diamagnetic   Paramagnetic  Diamagnetic
    2      -0.0862       -1.2757       1.1894        -0.9621       0.8759
    5       1.0193        1.3271      -0.3078         0.0712       0.9481
   13       1.1376        1.1218       0.0157         0.1122       1.0253
   18       2.0857        1.3291       0.7565         0.3089       1.7768
   19      26.4471       -0.0486      26.4957         0.4640      25.9831
 Sum       30.6034        2.4538      28.1496        -0.0058      30.6092

 Contributions to Isotropic shielding for atom   22 (    32.4778 ppm):
                         Standard Origin              Atomic Origin
 NLMO      Total    Paramagnetic  Diamagnetic   Paramagnetic  Diamagnetic
    3      -0.0533       -1.2128       1.1595        -0.9536       0.9003
    6       1.2072        0.4427       0.7645         0.3489       0.8582
    9       1.3793        0.0104       1.3689         0.5297       0.8496
   10       0.0059       -0.3038       0.3097        -1.1790       1.1849
   16      -0.0049       -0.3245       0.3196        -1.0230       1.0180
   20      26.2452        0.2504      25.9949         0.4001      25.8452
   21       1.9185        1.3989       0.5197         0.0986       1.8200
 Sum       30.6979        0.2612      30.4367        -1.7783      32.4762

 Contributions to Isotropic shielding for atom   23 (    32.9137 ppm):
                         Standard Origin              Atomic Origin
 NLMO      Total    Paramagnetic  Diamagnetic   Paramagnetic  Diamagnetic
    4      -0.0897       -1.3394       1.2497        -0.9657       0.8760
    6       1.0189        1.3417      -0.3228         0.0618       0.9571
    9       1.1979        0.9696       0.2283         0.3086       0.8892
   10      -0.1786        0.2207      -0.3993        -1.2862       1.1076
   20       2.0829        1.1928       0.8902         0.2179       1.8651
   21      26.5628        0.0216      26.5413         0.4418      26.1210
   22      -0.0225       -1.1604       1.1379        -0.6962       0.6737
 Sum       30.5717        1.2465      29.3252        -1.9180      32.4897

 Contributions to Isotropic shielding for atom   24 (    35.0815 ppm):
                         Standard Origin              Atomic Origin
 NLMO      Total    Paramagnetic  Diamagnetic   Paramagnetic  Diamagnetic
    9      -0.2406        0.3157      -0.5563        -1.2468       1.0062
   10       1.4246        2.2477      -0.8231         0.7314       0.6932
   11       0.1555        0.3489      -0.1934        -0.8903       1.0458
   21      -0.0806       -0.4355       0.3549        -1.0255       0.9449
   22      23.0833       -0.5033      23.5866        -0.0867      23.1699
   43       4.2513        0.8902       3.3612         2.3242       1.9271
   44       5.5908        2.4549       3.1359         2.4183       3.1726
 Sum       34.1844        5.3186      28.8658         2.2246      31.9597

 Contributions to Isotropic shielding for atom   25 (    32.5989 ppm):
                         Standard Origin              Atomic Origin
 NLMO      Total    Paramagnetic  Diamagnetic   Paramagnetic  Diamagnetic
   16       1.6166       -0.4437       2.0603         0.6602       0.9564
   23       1.0960        0.9826       0.1134         0.0291       1.0670
   24       1.0132        1.1730      -0.1597         0.0101       1.0031
   25      26.4974        0.1645      26.3329         0.3297      26.1677
   27       0.1609       -0.9871       1.1481        -0.8771       1.0380
   30       0.2105       -0.9524       1.1630        -0.7592       0.9698
 Sum       30.5947       -0.0631      30.6579        -0.6072      31.2019

 Contributions to Isotropic shielding for atom   26 (    32.3470 ppm):
                         Standard Origin              Atomic Origin
 NLMO      Total    Paramagnetic  Diamagnetic   Paramagnetic  Diamagnetic
   16      -0.0978        0.1981      -0.2958        -1.0402       0.9424
   23       1.3771       -0.3379       1.7150         0.4510       0.9260
   26      26.2742        0.2237      26.0505         0.4319      25.8423
   27       2.1022        0.8659       1.2363         0.2898       1.8124
   28       1.8727        2.1486      -0.2759         0.0778       1.7949
   43      -0.6691        0.0082      -0.6774         0.3760      -1.0451
 Sum       30.8593        3.1066      27.7527         0.5864      30.2730

 Contributions to Isotropic shielding for atom   27 (    31.8028 ppm):
                         Standard Origin              Atomic Origin
 NLMO      Total    Paramagnetic  Diamagnetic   Paramagnetic  Diamagnetic
    8      -0.0920       -0.0029      -0.0891        -1.0129       0.9209
   23       1.4952       -1.0524       2.5476         0.4893       1.0059
   26       2.0200        0.9910       1.0290         0.1919       1.8281
   27      26.0524        0.3137      25.7387         0.4056      25.6467
   28       1.8301        1.5193       0.3108        -0.0831       1.9132
   43      -0.7993        0.1440      -0.9433         0.5564      -1.3557
 Sum       30.5063        1.9126      28.5937         0.5472      29.9592

 Contributions to Isotropic shielding for atom   28 (    32.6231 ppm):
                         Standard Origin              Atomic Origin
 NLMO      Total    Paramagnetic  Diamagnetic   Paramagnetic  Diamagnetic
   23       1.3055        0.2009       1.1046         0.3729       0.9327
   24      -0.2297        0.5760      -0.8057        -1.3714       1.1417
   26       1.9425        1.9952      -0.0527         0.0721       1.8705
   27       2.0275        1.3826       0.6449         0.1087       1.9188
   28      26.5219        0.0354      26.4864         0.4617      26.0601
   31      -0.1708       -1.1169       0.9461        -1.0373       0.8665
 Sum       31.3970        3.0733      28.3237        -1.3933      32.7902

 Contributions to Isotropic shielding for atom   29 (    32.5456 ppm):
                         Standard Origin              Atomic Origin
 NLMO      Total    Paramagnetic  Diamagnetic   Paramagnetic  Diamagnetic
   24       1.4366       -0.4488       1.8853         0.4676       0.9690
   29      26.3561        0.2122      26.1439         0.4313      25.9248
   30       2.0252        1.0491       0.9760         0.2489       1.7762
   31       1.8917        2.1728      -0.2811         0.0840       1.8077
 Sum       31.7095        2.9854      28.7241         1.2318      30.4778

 Contributions to Isotropic shielding for atom   30 (    32.4027 ppm):
                         Standard Origin              Atomic Origin
 NLMO      Total    Paramagnetic  Diamagnetic   Paramagnetic  Diamagnetic
   12      -0.0914        0.0295      -0.1208        -1.0802       0.9888
   24       1.5245       -1.1277       2.6522         0.5047       1.0199
   29       2.0156        1.1845       0.8311         0.1871       1.8285
   30      26.4170        0.2639      26.1531         0.4039      26.0131
   31       1.8410        1.5928       0.2481        -0.0663       1.9073
 Sum       31.7067        1.9429      29.7638        -0.0508      31.7575

 Contributions to Isotropic shielding for atom   31 (    32.5303 ppm):
                         Standard Origin              Atomic Origin
 NLMO      Total    Paramagnetic  Diamagnetic   Paramagnetic  Diamagnetic
   23      -0.2109        0.6615      -0.8724        -1.3096       1.0987
   24       1.3918       -0.0200       1.4118         0.4031       0.9888
   28      -0.1767       -1.0343       0.8576        -1.0117       0.8350
   29       1.9185        2.0138      -0.0953         0.0655       1.8529
   30       1.9702        1.4396       0.5307         0.0875       1.8827
   31      26.3632        0.0529      26.3103         0.4586      25.9046
 Sum       31.2561        3.1135      28.1426        -1.3066      32.5627
 
 1\1\GINC-COMPUTE-10-4\SP\RHF\STO-3G\C10H20O1\YTSAI.IQUIR\03-Aug-2021\0
 \\# rhf/STO-3G nmr pop=nbo\\comment\\0,1\C,0,-0.572334661,0.243313792,
 -3.264823912\C,0,-1.024362736,-0.102057109,-1.84731187\C,0,-0.49795378
 9,-1.46991194,0.217513572\C,0,-1.393739751,0.825733826,0.489407148\C,0
 ,-0.403439335,-0.19591687,1.093166387\C,0,-1.070450051,1.157340308,-0.
 969103045\C,0,-0.128663548,-1.191594245,-1.241484414\O,0,0.292242357,-
 2.52860217,0.735550131\C,0,1.037050363,0.395709061,1.281162392\C,0,2.0
 15697206,-0.584280219,1.940721455\C,0,1.018765499,1.681185787,2.124120
 79\H,0,-1.237649747,0.988177571,-3.713952915\H,0,0.444581556,0.6501341
 69,-3.270204832\H,0,-0.584771356,-0.645892807,-3.903848121\H,0,-2.0448
 74466,-0.503680368,-1.91155081\H,0,-1.535303778,-1.828625971,0.2498888
 91\H,0,-1.435032118,1.744649545,1.081598053\H,0,-2.407794158,0.4059861
 25,0.536575357\H,0,-0.76463355,-0.462149014,2.096565829\H,0,-0.1157776
 68,1.693442714,-1.025531055\H,0,-1.833012079,1.8443486,-1.356150774\H,
 0,0.930015397,-0.913443129,-1.314852936\H,0,-0.223845687,-2.116691204,
 -1.824648508\H,0,0.174087869,-3.298893918,0.154158915\H,0,1.457375658,
 0.659705855,0.303964535\H,0,1.584860013,-1.0327386,2.841847439\H,0,2.3
 07009251,-1.38172797,1.252112393\H,0,2.945262668,-0.080463763,2.228974
 199\H,0,0.513789484,1.51908636,3.082234825\H,0,0.516342697,2.499135905
 ,1.599994754\H,0,2.036558459,2.02871968,2.333906125\\Version=EM64L-G09
 RevC.01\State=1-A\HF=-459.6166707\RMSD=7.612e-09\Dipole=-0.3247134,0.0
 08762,-0.4754887\Quadrupole=0.1012125,1.1111195,-1.212332,1.2616835,-0
 .6284372,2.3699788\PG=C01 [X(C10H20O1)]\\@


 TERRY FORSTER, PORTLY ATLANTA BRAVES RELIEVER,
 ANNOUNCING THAT HE WAS GOING TO A FAT FARM:
 "A WAIST IS A TERRIBLE THING TO MIND."
 Job cpu time:  0 days  0 hours  0 minutes 31.4 seconds.
 File lengths (MBytes):  RWF=      5 Int=      0 D2E=      0 Chk=      1 Scr=      1
 Normal termination of Gaussian 09 at Tue Aug  3 16:34:18 2021.
