 Entering Gaussian System, Link 0=g09
 Input=/home/ytsai.iquir/menthol/02_menthol_M0052_MMFF_NMR_rhf_STO-3G_nbo.gjc
 Output=/home/ytsai.iquir/menthol/02_menthol_M0052_MMFF_NMR_rhf_STO-3G_nbo.log
 Initial command:
 /share/apps/Gaussian09/EM64T.SSE4.2-enabled/g09/l1.exe /tmp/Gau-32039.inp -scrdir=/tmp/
 Entering Link 1 = /share/apps/Gaussian09/EM64T.SSE4.2-enabled/g09/l1.exe PID=     32040.
  
 Copyright (c) 1988,1990,1992,1993,1995,1998,2003,2009,2011,
            Gaussian, Inc.  All Rights Reserved.
  
 This is part of the Gaussian(R) 09 program.  It is based on
 the Gaussian(R) 03 system (copyright 2003, Gaussian, Inc.),
 the Gaussian(R) 98 system (copyright 1998, Gaussian, Inc.),
 the Gaussian(R) 94 system (copyright 1995, Gaussian, Inc.),
 the Gaussian 92(TM) system (copyright 1992, Gaussian, Inc.),
 the Gaussian 90(TM) system (copyright 1990, Gaussian, Inc.),
 the Gaussian 88(TM) system (copyright 1988, Gaussian, Inc.),
 the Gaussian 86(TM) system (copyright 1986, Carnegie Mellon
 University), and the Gaussian 82(TM) system (copyright 1983,
 Carnegie Mellon University). Gaussian is a federally registered
 trademark of Gaussian, Inc.
  
 This software contains proprietary and confidential information,
 including trade secrets, belonging to Gaussian, Inc.
  
 This software is provided under written license and may be
 used, copied, transmitted, or stored only in accord with that
 written license.
  
 The following legend is applicable only to US Government
 contracts under FAR:
  
                    RESTRICTED RIGHTS LEGEND
  
 Use, reproduction and disclosure by the US Government is
 subject to restrictions as set forth in subparagraphs (a)
 and (c) of the Commercial Computer Software - Restricted
 Rights clause in FAR 52.227-19.
  
 Gaussian, Inc.
 340 Quinnipiac St., Bldg. 40, Wallingford CT 06492
  
  
 ---------------------------------------------------------------
 Warning -- This program may not be used in any manner that
 competes with the business of Gaussian, Inc. or will provide
 assistance to any competitor of Gaussian, Inc.  The licensee
 of this program is prohibited from giving any competitor of
 Gaussian, Inc. access to this program.  By using this program,
 the user acknowledges that Gaussian, Inc. is engaged in the
 business of creating and licensing software in the field of
 computational chemistry and represents and warrants to the
 licensee that it is not a competitor of Gaussian, Inc. and that
 it will not use this program in any manner prohibited above.
 ---------------------------------------------------------------
  

 Cite this work as:
 Gaussian 09, Revision C.01,
 M. J. Frisch, G. W. Trucks, H. B. Schlegel, G. E. Scuseria, 
 M. A. Robb, J. R. Cheeseman, G. Scalmani, V. Barone, B. Mennucci, 
 G. A. Petersson, H. Nakatsuji, M. Caricato, X. Li, H. P. Hratchian, 
 A. F. Izmaylov, J. Bloino, G. Zheng, J. L. Sonnenberg, M. Hada, 
 M. Ehara, K. Toyota, R. Fukuda, J. Hasegawa, M. Ishida, T. Nakajima, 
 Y. Honda, O. Kitao, H. Nakai, T. Vreven, J. A. Montgomery, Jr., 
 J. E. Peralta, F. Ogliaro, M. Bearpark, J. J. Heyd, E. Brothers, 
 K. N. Kudin, V. N. Staroverov, T. Keith, R. Kobayashi, J. Normand, 
 K. Raghavachari, A. Rendell, J. C. Burant, S. S. Iyengar, J. Tomasi, 
 M. Cossi, N. Rega, J. M. Millam, M. Klene, J. E. Knox, J. B. Cross, 
 V. Bakken, C. Adamo, J. Jaramillo, R. Gomperts, R. E. Stratmann, 
 O. Yazyev, A. J. Austin, R. Cammi, C. Pomelli, J. W. Ochterski, 
 R. L. Martin, K. Morokuma, V. G. Zakrzewski, G. A. Voth, 
 P. Salvador, J. J. Dannenberg, S. Dapprich, A. D. Daniels, 
 O. Farkas, J. B. Foresman, J. V. Ortiz, J. Cioslowski, 
 and D. J. Fox, Gaussian, Inc., Wallingford CT, 2010.
 
 ******************************************
 Gaussian 09:  EM64L-G09RevC.01 23-Sep-2011
                 3-Aug-2021 
 ******************************************
 %nprocshared=4
 Will use up to    4 processors via shared memory.
 ------------------------
 # rhf/STO-3G nmr pop=nbo
 ------------------------
 1/38=1/1;
 2/12=2,17=6,18=5,40=1/2;
 3/6=3,11=1,16=1,25=1,30=1,116=1/1,2,8,3;
 4//1;
 5/5=2,38=5/2;
 8/6=1,10=90,11=11/1;
 10/13=100,45=16/2;
 6/7=2,8=2,9=2,10=2,28=1,64=1/1,7;
 99/9=1/99;
 -------
 comment
 -------
 Charge =  0 Multiplicity = 1
 Symbolic Z-Matrix:
 6                    -0.99964   0.48713  -3.19842 
 6                    -1.24147   0.08525  -1.7444 
 6                    -0.41021  -1.36612   0.16643 
 6                    -1.35535   0.9311    0.63997 
 6                    -0.39497  -0.16864   1.14248 
 6                    -1.17711   1.30971  -0.82684 
 6                    -0.24244  -0.98858  -1.30639 
 8                     0.56327  -2.34396   0.50415 
 6                     0.98772   0.40601   1.59542 
 6                     2.05071   0.56614   0.51026 
 6                     1.58613  -0.40694   2.75492 
 1                    -1.08138  -0.38161  -3.86011 
 1                    -1.73789   1.22726  -3.52461 
 1                    -0.00297   0.9216   -3.33126 
 1                    -2.25207  -0.33992  -1.67867 
 1                    -1.38768  -1.85885   0.25973 
 1                    -1.27614   1.82872   1.26437 
 1                    -2.38427   0.56829   0.77074 
 1                    -0.85559  -0.53949   2.07083 
 1                    -0.2324    1.84444  -0.96486 
 1                    -1.96806   2.01678  -1.10694 
 1                     0.78378  -0.6666   -1.51075 
 1                    -0.37619  -1.89007  -1.91939 
 1                     0.34367  -2.67764   1.39068 
 1                     0.80373   1.40753   2.00778 
 1                     2.38001  -0.39929   0.11517 
 1                     1.70192   1.18487  -0.31768 
 1                     2.93837   1.06144   0.92101 
 1                     1.90575  -1.4037    2.43993 
 1                     0.86556  -0.51827   3.57182 
 1                     2.46522   0.10342   3.16462 
 
                          Input orientation:                          
 ---------------------------------------------------------------------
 Center     Atomic      Atomic             Coordinates (Angstroms)
 Number     Number       Type             X           Y           Z
 ---------------------------------------------------------------------
      1          6           0       -0.999636    0.487125   -3.198415
      2          6           0       -1.241470    0.085247   -1.744395
      3          6           0       -0.410212   -1.366125    0.166430
      4          6           0       -1.355347    0.931097    0.639972
      5          6           0       -0.394974   -0.168637    1.142483
      6          6           0       -1.177110    1.309712   -0.826841
      7          6           0       -0.242439   -0.988576   -1.306395
      8          8           0        0.563268   -2.343956    0.504146
      9          6           0        0.987717    0.406012    1.595418
     10          6           0        2.050713    0.566141    0.510263
     11          6           0        1.586132   -0.406944    2.754920
     12          1           0       -1.081376   -0.381611   -3.860106
     13          1           0       -1.737888    1.227259   -3.524612
     14          1           0       -0.002969    0.921598   -3.331265
     15          1           0       -2.252074   -0.339918   -1.678667
     16          1           0       -1.387675   -1.858852    0.259733
     17          1           0       -1.276139    1.828716    1.264375
     18          1           0       -2.384267    0.568294    0.770743
     19          1           0       -0.855594   -0.539492    2.070832
     20          1           0       -0.232405    1.844444   -0.964859
     21          1           0       -1.968063    2.016785   -1.106936
     22          1           0        0.783779   -0.666597   -1.510754
     23          1           0       -0.376192   -1.890069   -1.919395
     24          1           0        0.343669   -2.677643    1.390680
     25          1           0        0.803733    1.407529    2.007778
     26          1           0        2.380008   -0.399292    0.115171
     27          1           0        1.701923    1.184871   -0.317683
     28          1           0        2.938370    1.061440    0.921015
     29          1           0        1.905747   -1.403702    2.439928
     30          1           0        0.865557   -0.518271    3.571818
     31          1           0        2.465216    0.103416    3.164620
 ---------------------------------------------------------------------
                    Distance matrix (angstroms):
                    1          2          3          4          5
     1  C    0.000000
     2  C    1.527797   0.000000
     3  C    3.886405   2.539434   0.000000
     4  C    3.880317   2.532516   2.528785   0.000000
     5  C    4.431595   3.019118   1.544955   1.544101   0.000000
     6  C    2.516448   1.531457   2.955474   1.525339   2.583697
     7  C    2.516105   1.530688   1.529674   2.951619   2.587000
     8  O    4.915959   3.770152   1.420517   3.798093   2.461242
     9  C    5.190086   4.028215   2.671457   2.584287   1.564355
    10  C    4.802621   4.019106   3.147701   3.428012   2.630777
    11  C    6.551928   5.336799   3.406713   3.862079   2.565448
    12  H    1.095088   2.172515   4.199134   4.695633   5.053949
    13  H    1.095088   2.172508   4.702356   4.192590   5.053090
    14  H    1.095336   2.179799   4.199213   4.195204   4.621331
    15  H    2.135939   1.098365   2.801774   2.792075   3.381869
    16  H    4.196781   2.795966   1.098599   2.815926   2.149773
    17  H    4.668278   3.477583   3.487452   1.096300   2.186488
    18  H    4.204523   2.804503   2.829146   1.098819   2.153728
    19  H    5.370257   3.885249   2.123307   2.111811   1.100698
    20  H    2.723919   2.172709   3.408692   2.161177   2.918872
    21  H    2.766224   2.159891   3.936044   2.146119   3.508642
    22  H    2.712903   2.172899   2.174373   3.428426   2.945689
    23  H    2.770492   2.163609   2.150892   3.932948   3.512659
    24  H    5.734110   4.469332   1.946074   4.058722   2.627224
    25  H    5.586030   4.473264   3.543639   2.599906   2.161003
    26  H    4.815348   4.099740   2.953424   3.999778   2.968012
    27  H    4.010472   3.450832   3.347097   3.213784   2.891547
    28  H    5.727777   5.052566   4.204220   4.304879   3.559961
    29  H    6.618716   5.443391   3.245593   4.396119   2.915831
    30  H    7.094069   5.750297   3.734047   3.953328   2.759140
    31  H    7.255387   6.151283   4.406447   4.653558   3.513366
                    6          7          8          9         10
     6  C    0.000000
     7  C    2.526997   0.000000
     8  O    4.260251   2.400891   0.000000
     9  C    3.372016   3.446546   2.988872   0.000000
    10  C    3.572057   3.312996   3.268209   1.527470   0.000000
    11  C    4.838535   4.491798   3.140740   1.537349   2.490223
    12  H    3.474253   2.755660   5.059877   5.887635   5.459702
    13  H    2.756671   3.473727   5.854894   5.858163   5.574118
    14  H    2.793094   2.793959   5.069008   5.051682   4.370503
    15  H    2.145328   2.144289   4.087419   4.666078   4.911856
    16  H    3.356304   2.126429   2.025153   3.543466   4.214958
    17  H    2.156932   3.951522   4.623046   2.694200   3.637406
    18  H    2.135230   3.365379   4.152137   3.475155   4.442624
    19  H    3.452454   3.461690   2.779166   2.125510   3.479141
    20  H    1.094283   2.853551   4.509298   3.180063   3.003777
    21  H    1.097275   3.471276   5.293325   4.316705   4.568399
    22  H    2.866813   1.094786   2.630966   3.292474   2.685009
    23  H    3.474729   1.098338   2.638589   4.414311   4.222093
    24  H    4.809280   3.235843   0.972375   3.156841   3.769783
    25  H    3.459534   4.221320   4.048749   1.098602   2.122604
    26  H    4.057237   3.040614   2.689528   2.185891   1.093889
    27  H    2.926373   3.079280   3.797967   2.185559   1.090861
    28  H    4.478149   4.391067   4.172722   2.165515   1.096345
    29  H    5.247705   4.338430   2.536450   2.197963   2.761322
    30  H    5.182877   5.024520   3.582613   2.185263   3.457406
    31  H    5.536556   5.339833   4.084746   2.176456   2.726084
                   11         12         13         14         15
    11  C    0.000000
    12  H    7.132658   0.000000
    13  H    7.290559   1.769753   0.000000
    14  H    6.428990   1.772283   1.772217   0.000000
    15  H    5.864555   2.476076   2.475468   3.062838   0.000000
    16  H    4.144577   4.387384   4.895712   4.748007   2.609931
    17  H    3.925874   5.584244   4.848645   4.854248   3.783770
    18  H    4.544460   4.903530   4.393417   4.756246   2.615708
    19  H    2.539207   5.937334   5.933704   5.660777   4.006086
    20  H    4.713022   3.749471   3.033106   2.550326   3.059415
    21  H    5.781063   3.757454   2.553720   3.163648   2.441636
    22  H    4.348237   3.013217   3.741806   2.540786   3.057992
    23  H    5.282006   2.557165   3.761471   3.168303   2.445373
    24  H    2.925909   5.905359   6.613715   5.947390   4.650132
    25  H    2.112505   6.417689   6.090950   5.421465   5.097195
    26  H    2.756551   5.271083   5.731557   4.393319   4.967651
    27  H    3.462394   4.769631   4.703029   3.472412   4.450994
    28  H    2.710702   6.410918   6.454338   5.172322   5.971839
    29  H    1.093115   7.046844   7.468184   6.508217   5.948272
    30  H    1.094963   7.683926   7.757842   7.104935   6.108929
    31  H    1.095951   7.884183   7.979657   6.996990   6.775455
                   16         17         18         19         20
    16  H    0.000000
    17  H    3.823598   0.000000
    18  H    2.673081   1.749367   0.000000
    19  H    2.303019   2.536857   2.292218   0.000000
    20  H    4.068006   2.461526   3.044895   3.909851   0.000000
    21  H    4.150325   2.477347   2.407703   4.227334   1.749971
    22  H    3.044882   4.262767   4.094716   3.940997   2.763323
    23  H    2.402638   4.977515   4.160860   4.239786   3.857253
    24  H    2.224188   4.790303   4.285098   2.544116   5.131247
    25  H    4.304320   2.248536   3.521068   2.558952   3.178215
    26  H    4.043098   4.433068   4.905539   3.783303   3.609088
    27  H    4.375302   3.433117   4.273381   3.901195   2.143711
    28  H    5.261185   4.297522   5.347546   4.275421   3.771396
    29  H    3.975807   4.685600   5.007911   2.916864   5.168629
    30  H    4.224230   3.926767   4.425834   2.283806   5.231575
    31  H    5.208995   4.537105   5.428098   3.554924   5.230767
                   21         22         23         24         25
    21  H    0.000000
    22  H    3.864743   0.000000
    23  H    4.296236   1.734763   0.000000
    24  H    5.798262   3.557572   3.477796   0.000000
    25  H    4.213727   4.084417   5.262040   4.157054   0.000000
    26  H    5.122177   2.294130   3.736109   3.311266   3.054702
    27  H    3.844970   2.386281   4.042189   4.436482   2.502817
    28  H    5.394289   3.679929   5.269312   4.575347   2.420229
    29  H    6.267885   4.172532   4.944441   2.272430   3.050280
    30  H    6.028818   5.085393   5.794582   3.113297   2.481682
    31  H    6.446793   5.027849   6.155874   3.922004   2.408219
                   26         27         28         29         30
    26  H    0.000000
    27  H    1.776720   0.000000
    28  H    1.759230   1.754540   0.000000
    29  H    2.576482   3.787700   3.074139   0.000000
    30  H    3.775728   4.327634   3.717364   1.774023   0.000000
    31  H    3.091782   3.725399   2.485045   1.763402   1.763863
                   31
    31  H    0.000000
 Stoichiometry    C10H20O
 Framework group  C1[X(C10H20O)]
 Deg. of freedom    87
 Full point group                 C1      NOp   1
 Largest Abelian subgroup         C1      NOp   1
 Largest concise Abelian subgroup C1      NOp   1
                         Standard orientation:                         
 ---------------------------------------------------------------------
 Center     Atomic      Atomic             Coordinates (Angstroms)
 Number     Number       Type             X           Y           Z
 ---------------------------------------------------------------------
      1          6           0       -3.333459    0.102803    0.782106
      2          6           0       -2.149614    0.100204   -0.183643
      3          6           0        0.132649    1.106060   -0.661403
      4          6           0       -0.318713   -1.322714   -1.201848
      5          6           0        0.770837   -0.289188   -0.842745
      6          6           0       -1.541238   -1.301205   -0.289910
      7          6           0       -1.100026    1.129002    0.244076
      8          8           0        1.068154    2.064890   -0.188809
      9          6           0        1.749032   -0.810394    0.261196
     10          6           0        1.328441   -0.581202    1.711623
     11          6           0        3.169438   -0.255362    0.066701
     12          1           0       -3.792169    1.095967    0.831390
     13          1           0       -4.102310   -0.605430    0.455774
     14          1           0       -3.022582   -0.177402    1.794332
     15          1           0       -2.526099    0.386790   -1.174871
     16          1           0       -0.192586    1.454248   -1.651305
     17          1           0        0.102186   -2.334608   -1.229906
     18          1           0       -0.659388   -1.114355   -2.225532
     19          1           0        1.393234   -0.213037   -1.747377
     20          1           0       -1.277379   -1.682068    0.701441
     21          1           0       -2.291593   -1.994694   -0.689973
     22          1           0       -0.816497    0.978070    1.290684
     23          1           0       -1.537744    2.136039    0.219090
     24          1           0        1.768820    2.141054   -0.858718
     25          1           0        1.841062   -1.896851    0.126778
     26          1           0        1.317461    0.481468    1.970863
     27          1           0        0.346918   -1.006078    1.926264
     28          1           0        2.037408   -1.067478    2.391971
     29          1           0        3.227024    0.816389    0.273908
     30          1           0        3.524189   -0.428400   -0.954648
     31          1           0        3.870726   -0.756770    0.743380
 ---------------------------------------------------------------------
 Rotational constants (GHZ):      1.6735288      0.7648023      0.6867657
 Standard basis: STO-3G (5D, 7F)
 There are    75 symmetry adapted basis functions of A   symmetry.
 Integral buffers will be    131072 words long.
 Raffenetti 1 integral format.
 Two-electron integral symmetry is turned on.
    75 basis functions,   225 primitive gaussians,    75 cartesian basis functions
    44 alpha electrons       44 beta electrons
       nuclear repulsion energy       701.7884560928 Hartrees.
 NAtoms=   31 NActive=   31 NUniq=   31 SFac= 1.00D+00 NAtFMM=   60 NAOKFM=F Big=F
 One-electron integrals computed using PRISM.
 NBasis=    75 RedAO= T  NBF=    75
 NBsUse=    75 1.00D-06 NBFU=    75
 Harris functional with IExCor=  205 diagonalized for initial guess.
 ExpMin= 1.69D-01 ExpMax= 1.31D+02 ExpMxC= 1.31D+02 IAcc=1 IRadAn=         1 AccDes= 0.00D+00
 HarFok:  IExCor=  205 AccDes= 0.00D+00 IRadAn=         1 IDoV= 1
 ScaDFX=  1.000000  1.000000  1.000000  1.000000
 FoFCou: FMM=F IPFlag=           0 FMFlag=      100000 FMFlg1=           0
         NFxFlg=           0 DoJE=T BraDBF=F KetDBF=T FulRan=T
         Omega=  0.000000  0.000000  1.000000  0.000000  0.000000 ICntrl=     500 IOpCl=  0
         NMat0=    1 NMatS0=    1 NMatT0=    0 NMatD0=    1 NMtDS0=    0 NMtDT0=    0
         I1Cent=           4 NGrid=           0.
 Petite list used in FoFCou.
 Initial guess orbital symmetries:
       Occupied  (A) (A) (A) (A) (A) (A) (A) (A) (A) (A) (A) (A)
                 (A) (A) (A) (A) (A) (A) (A) (A) (A) (A) (A) (A)
                 (A) (A) (A) (A) (A) (A) (A) (A) (A) (A) (A) (A)
                 (A) (A) (A) (A) (A) (A) (A) (A)
       Virtual   (A) (A) (A) (A) (A) (A) (A) (A) (A) (A) (A) (A)
                 (A) (A) (A) (A) (A) (A) (A) (A) (A) (A) (A) (A)
                 (A) (A) (A) (A) (A) (A) (A)
 The electronic state of the initial guess is 1-A.
 Requested convergence on RMS density matrix=1.00D-08 within 128 cycles.
 Requested convergence on MAX density matrix=1.00D-06.
 Requested convergence on             energy=1.00D-06.
 No special actions if energy rises.
 Keep R1 ints in memory in canonical form, NReq=4898789.
 SCF Done:  E(RHF) =  -459.612413047     A.U. after   10 cycles
             Convg  =    0.9008D-08             -V/T =  2.0089
 Range of M.O.s used for correlation:     1    75
 NBasis=    75 NAE=    44 NBE=    44 NFC=     0 NFV=     0
 NROrb=     75 NOA=    44 NOB=    44 NVA=    31 NVB=    31
          Differentiating once with respect to magnetic field using GIAOs.
          Electric field/nuclear overlap derivatives assumed to be zero.
          Keep R3 ints in memory in canonical form, NReq=4863575.
 FoFCou: FMM=F IPFlag=           0 FMFlag=           0 FMFlg1=           0
         NFxFlg=           0 DoJE=F BraDBF=F KetDBF=T FulRan=T
         Omega=  0.000000  0.000000  1.000000  0.000000  0.000000 ICntrl=    6100 IOpCl=  0
         NMat0=    1 NMatS0=    1 NMatT0=    0 NMatD0=    1 NMtDS0=    0 NMtDT0=    0
         I1Cent=           7 NGrid=          31.
 Symmetry not used in FoFCou.
          There are     3 degrees of freedom in the 1st order CPHF.  IDoFFX=0.
      3 vectors produced by pass  0 Test12= 4.55D-14 3.33D-08 XBig12= 6.36D+00 3.93D-01.
 AX will form     3 AO Fock derivatives at one time.
      3 vectors produced by pass  1 Test12= 4.55D-14 3.33D-08 XBig12= 1.01D-02 2.01D-02.
      3 vectors produced by pass  2 Test12= 4.55D-14 3.33D-08 XBig12= 6.62D-05 2.35D-03.
      3 vectors produced by pass  3 Test12= 4.55D-14 3.33D-08 XBig12= 1.67D-06 3.50D-04.
      3 vectors produced by pass  4 Test12= 4.55D-14 3.33D-08 XBig12= 1.85D-08 2.68D-05.
      3 vectors produced by pass  5 Test12= 4.55D-14 3.33D-08 XBig12= 2.52D-10 3.02D-06.
      3 vectors produced by pass  6 Test12= 4.55D-14 3.33D-08 XBig12= 2.96D-12 2.42D-07.
 Inverted reduced A of dimension    21 with in-core refinement.
 Calculating GIAO nuclear magnetic shielding tensors.
 SCF GIAO Magnetic shielding tensor (ppm):
      1  C    Isotropic =   221.0714   Anisotropy =    28.2428
   XX=   231.9529   YX=    -0.9232   ZX=   -11.1466
   XY=    -0.2424   YY=   211.9604   ZY=     0.4399
   XZ=   -14.3793   YZ=     1.0586   ZZ=   219.3010
   Eigenvalues:   211.2283   212.0861   239.9000
      2  C    Isotropic =   215.2882   Anisotropy =     7.2808
   XX=   218.9487   YX=    -0.2914   ZX=    -1.9564
   XY=    -0.4292   YY=   216.3458   ZY=     2.3515
   XZ=    -3.7958   YZ=     2.1526   ZZ=   210.5702
   Eigenvalues:   209.0940   216.6286   220.1421
      3  C    Isotropic =   187.5659   Anisotropy =    40.5422
   XX=   198.4859   YX=    17.1107   ZX=     5.6819
   XY=    14.4499   YY=   192.1196   ZY=     8.2176
   XZ=     8.4040   YZ=    11.2432   ZZ=   172.0921
   Eigenvalues:   168.1254   179.9782   214.5940
      4  C    Isotropic =   214.1781   Anisotropy =    18.2669
   XX=   222.4189   YX=     4.6929   ZX=     4.1363
   XY=     6.3353   YY=   214.7939   ZY=     5.8119
   XZ=     0.4945   YZ=     5.0845   ZZ=   205.3215
   Eigenvalues:   202.8368   213.3415   226.3561
      5  C    Isotropic =   211.0034   Anisotropy =    14.3441
   XX=   213.8221   YX=    -2.7926   ZX=     8.0042
   XY=    -2.3020   YY=   206.6207   ZY=    -2.7632
   XZ=     4.9285   YZ=    -2.0169   ZZ=   212.5672
   Eigenvalues:   205.7428   206.7012   220.5661
      6  C    Isotropic =   217.9848   Anisotropy =    15.9349
   XX=   220.2811   YX=    -4.2366   ZX=    -5.8191
   XY=    -7.5203   YY=   220.9839   ZY=     3.1957
   XZ=    -3.9767   YZ=     3.3495   ZZ=   212.6894
   Eigenvalues:   210.2712   215.0751   228.6081
      7  C    Isotropic =   217.3430   Anisotropy =    20.6624
   XX=   227.2630   YX=     7.1626   ZX=    -4.6914
   XY=     7.9615   YY=   214.2047   ZY=     2.3543
   XZ=    -2.8963   YZ=     0.7010   ZZ=   210.5613
   Eigenvalues:   207.5022   213.4089   231.1179
      8  O    Isotropic =   360.6227   Anisotropy =    88.5719
   XX=   375.5984   YX=     4.5046   ZX=   -34.3931
   XY=   -14.5697   YY=   333.5997   ZY=    -9.6129
   XZ=   -56.1146   YZ=   -14.2294   ZZ=   372.6700
   Eigenvalues:   318.8438   343.3537   419.6707
      9  C    Isotropic =   210.5446   Anisotropy =    21.6435
   XX=   215.1572   YX=    -4.1607   ZX=     9.4494
   XY=    -3.3272   YY=   206.9011   ZY=    -3.5037
   XZ=    12.1851   YZ=    -3.4622   ZZ=   209.5755
   Eigenvalues:   201.1487   205.5114   224.9736
     10  C    Isotropic =   222.5133   Anisotropy =    18.2706
   XX=   221.1874   YX=    -1.2071   ZX=    -2.6539
   XY=    -1.6247   YY=   213.2413   ZY=     1.5102
   XZ=    -6.3745   YZ=     0.0499   ZZ=   233.1112
   Eigenvalues:   212.9966   219.8497   234.6937
     11  C    Isotropic =   218.8539   Anisotropy =    30.1199
   XX=   236.8601   YX=     4.9193   ZX=    -4.3905
   XY=     9.6963   YY=   205.5146   ZY=    -2.1735
   XZ=    -1.3504   YZ=    -2.8341   ZZ=   214.1869
   Eigenvalues:   203.5717   214.0561   238.9338
     12  H    Isotropic =    32.3849   Anisotropy =    13.9308
   XX=    35.0117   YX=    -6.0475   ZX=    -2.8952
   XY=    -5.8311   YY=    35.0375   ZY=     1.4534
   XZ=    -2.9394   YZ=     1.7779   ZZ=    27.1054
   Eigenvalues:    26.1252    29.3574    41.6721
     13  H    Isotropic =    32.4306   Anisotropy =    14.1180
   XX=    39.2151   YX=     5.4213   ZX=    -0.1175
   XY=     5.3643   YY=    30.6932   ZY=     1.6183
   XZ=    -0.3218   YZ=     1.4446   ZZ=    27.3834
   Eigenvalues:    26.2088    29.2404    41.8426
     14  H    Isotropic =    32.6220   Anisotropy =    10.9185
   XX=    31.2950   YX=    -0.2171   ZX=    -1.8501
   XY=    -0.1884   YY=    27.5160   ZY=    -2.4224
   XZ=    -1.8549   YZ=    -2.3708   ZZ=    39.0551
   Eigenvalues:    26.9609    31.0041    39.9011
     15  H    Isotropic =    32.8227   Anisotropy =    12.1123
   XX=    33.5956   YX=    -2.0276   ZX=     4.4565
   XY=    -1.7805   YY=    28.1803   ZY=    -2.8839
   XZ=     4.6690   YZ=    -2.8730   ZZ=    36.6921
   Eigenvalues:    27.2400    30.3305    40.8975
     16  H    Isotropic =    31.9168   Anisotropy =    10.4872
   XX=    29.7408   YX=    -1.0172   ZX=     1.8289
   XY=     0.0702   YY=    30.6763   ZY=    -4.5932
   XZ=     1.8629   YZ=    -5.4712   ZZ=    35.3333
   Eigenvalues:    27.2956    29.5465    38.9083
     17  H    Isotropic =    32.4536   Anisotropy =    13.1776
   XX=    30.9366   YX=    -2.8153   ZX=    -0.6075
   XY=    -3.1057   YY=    39.1588   ZY=     4.0992
   XZ=    -0.3439   YZ=     3.9097   ZZ=    27.2655
   Eigenvalues:    26.0040    30.1181    41.2387
     18  H    Isotropic =    32.5048   Anisotropy =    13.4879
   XX=    29.9759   YX=     1.1225   ZX=     3.2586
   XY=     1.0447   YY=    27.1332   ZY=     1.7522
   XZ=     2.6514   YZ=     2.0545   ZZ=    40.4051
   Eigenvalues:    26.6973    29.3202    41.4967
     19  H    Isotropic =    32.7764   Anisotropy =    12.0482
   XX=    34.1360   YX=     0.5402   ZX=    -4.3968
   XY=     0.4842   YY=    26.7494   ZY=    -0.7281
   XZ=    -5.0069   YZ=    -0.2474   ZZ=    37.4439
   Eigenvalues:    26.7106    30.8102    40.8085
     20  H    Isotropic =    32.8145   Anisotropy =     9.2731
   XX=    31.6874   YX=    -0.4757   ZX=     0.5034
   XY=    -0.3087   YY=    31.5880   ZY=    -5.1899
   XZ=     0.5715   YZ=    -5.3336   ZZ=    35.1682
   Eigenvalues:    27.8202    31.6268    38.9966
     21  H    Isotropic =    32.5492   Anisotropy =    14.6331
   XX=    35.1455   YX=     6.1518   ZX=     1.1261
   XY=     6.1225   YY=    35.1894   ZY=     3.9556
   XZ=     1.3942   YZ=     4.3507   ZZ=    27.3128
   Eigenvalues:    25.2862    30.0569    42.3047
     22  H    Isotropic =    32.4314   Anisotropy =     8.3003
   XX=    32.5926   YX=    -0.4516   ZX=     1.6105
   XY=    -0.3630   YY=    27.3120   ZY=     0.8921
   XZ=     1.6023   YZ=     1.3614   ZZ=    37.3895
   Eigenvalues:    27.1231    32.2061    37.9649
     23  H    Isotropic =    32.0841   Anisotropy =    13.7217
   XX=    32.0132   YX=    -4.0221   ZX=    -1.9354
   XY=    -3.7751   YY=    39.3718   ZY=     1.1755
   XZ=    -1.6538   YZ=     0.9867   ZZ=    24.8674
   Eigenvalues:    24.4402    30.5803    41.2319
     24  H    Isotropic =    34.9675   Anisotropy =    17.6299
   XX=    39.1672   YX=     6.2506   ZX=    -6.9331
   XY=     5.7170   YY=    33.2101   ZY=    -1.3753
   XZ=    -7.8593   YZ=    -2.5252   ZZ=    32.5253
   Eigenvalues:    27.0776    31.1041    46.7208
     25  H    Isotropic =    32.5532   Anisotropy =    11.3676
   XX=    30.8863   YX=    -2.4630   ZX=     1.4581
   XY=    -2.1814   YY=    39.4933   ZY=     1.4143
   XZ=     1.4483   YZ=     0.9831   ZZ=    27.2801
   Eigenvalues:    26.4745    31.0536    40.1316
     26  H    Isotropic =    32.2558   Anisotropy =     8.1679
   XX=    28.4841   YX=    -1.0164   ZX=     1.2164
   XY=    -0.9260   YY=    34.9163   ZY=     3.3311
   XZ=     1.1530   YZ=     3.6171   ZZ=    33.3669
   Eigenvalues:    27.6765    31.3897    37.7011
     27  H    Isotropic =    32.6591   Anisotropy =     9.7858
   XX=    37.2950   YX=     3.0769   ZX=    -1.4149
   XY=     2.9534   YY=    27.4912   ZY=    -3.1211
   XZ=    -1.7472   YZ=    -3.1599   ZZ=    33.1911
   Eigenvalues:    25.6858    33.1085    39.1829
     28  H    Isotropic =    32.5242   Anisotropy =    14.8375
   XX=    32.0426   YX=    -3.1593   ZX=     5.0268
   XY=    -2.9272   YY=    28.3403   ZY=    -4.7309
   XZ=     4.8550   YZ=    -4.6778   ZZ=    37.1897
   Eigenvalues:    26.1042    29.0526    42.4158
     29  H    Isotropic =    32.4125   Anisotropy =     9.2312
   XX=    33.7070   YX=     2.7630   ZX=     1.2699
   XY=     2.9502   YY=    36.7423   ZY=     0.5088
   XZ=     0.7415   YZ=     0.8998   ZZ=    26.7881
   Eigenvalues:    26.6352    32.0357    38.5666
     30  H    Isotropic =    32.6907   Anisotropy =    12.6646
   XX=    35.4413   YX=    -0.8108   ZX=    -5.6212
   XY=    -0.6429   YY=    26.8826   ZY=     0.5883
   XZ=    -5.2560   YZ=     1.2992   ZZ=    35.7483
   Eigenvalues:    26.7789    30.1595    41.1338
     31  H    Isotropic =    32.4141   Anisotropy =    14.5855
   XX=    38.7632   YX=    -3.6129   ZX=     4.7304
   XY=    -3.1740   YY=    27.9587   ZY=    -2.6729
   XZ=     4.5690   YZ=    -2.9554   ZZ=    30.5203
   Eigenvalues:    26.1321    28.9724    42.1377
 End of Minotr Frequency-dependent properties file   721 does not exist.
 End of Minotr Frequency-dependent properties file   722 does not exist.

 **********************************************************************

            Population analysis using the SCF density.

 **********************************************************************

 Orbital symmetries:
       Occupied  (A) (A) (A) (A) (A) (A) (A) (A) (A) (A) (A) (A)
                 (A) (A) (A) (A) (A) (A) (A) (A) (A) (A) (A) (A)
                 (A) (A) (A) (A) (A) (A) (A) (A) (A) (A) (A) (A)
                 (A) (A) (A) (A) (A) (A) (A) (A)
       Virtual   (A) (A) (A) (A) (A) (A) (A) (A) (A) (A) (A) (A)
                 (A) (A) (A) (A) (A) (A) (A) (A) (A) (A) (A) (A)
                 (A) (A) (A) (A) (A) (A) (A)
 The electronic state is 1-A.
 Alpha  occ. eigenvalues --  -20.23975 -11.08640 -11.04698 -11.04610 -11.04155
 Alpha  occ. eigenvalues --  -11.03726 -11.03562 -11.03370 -11.03102 -11.02764
 Alpha  occ. eigenvalues --  -11.02533  -1.28061  -1.08134  -1.03360  -0.97224
 Alpha  occ. eigenvalues --   -0.94753  -0.89029  -0.87825  -0.78954  -0.78023
 Alpha  occ. eigenvalues --   -0.74051  -0.69604  -0.61738  -0.61057  -0.58892
 Alpha  occ. eigenvalues --   -0.57481  -0.56247  -0.54109  -0.53700  -0.52725
 Alpha  occ. eigenvalues --   -0.51016  -0.49784  -0.48999  -0.47804  -0.46889
 Alpha  occ. eigenvalues --   -0.46588  -0.43051  -0.42479  -0.42326  -0.41420
 Alpha  occ. eigenvalues --   -0.39714  -0.38104  -0.36809  -0.32890
 Alpha virt. eigenvalues --    0.52208   0.55465   0.57799   0.58997   0.60737
 Alpha virt. eigenvalues --    0.62349   0.63103   0.63688   0.64864   0.65929
 Alpha virt. eigenvalues --    0.69764   0.70090   0.70787   0.71829   0.72509
 Alpha virt. eigenvalues --    0.73876   0.73980   0.74314   0.75341   0.75945
 Alpha virt. eigenvalues --    0.77212   0.77690   0.79407   0.79647   0.80182
 Alpha virt. eigenvalues --    0.81728   0.82785   0.83399   0.84170   0.85134
 Alpha virt. eigenvalues --    0.86092
          Condensed to atoms (all electrons):
              1          2          3          4          5          6
     1  C    4.738786   0.366062   0.000700   0.000737   0.000000  -0.024304
     2  C    0.366062   4.741155  -0.019959  -0.022369  -0.003107   0.364437
     3  C    0.000700  -0.019959   4.737685  -0.021221   0.353206  -0.004319
     4  C    0.000737  -0.022369  -0.021221   4.757858   0.358521   0.363448
     5  C    0.000000  -0.003107   0.353206   0.358521   4.798540  -0.020148
     6  C   -0.024304   0.364437  -0.004319   0.363448  -0.020148   4.756007
     7  C   -0.024208   0.363835   0.360391  -0.003964  -0.021230  -0.023151
     8  O   -0.000001   0.000227   0.267650   0.000221  -0.017404   0.000001
     9  C    0.000000   0.000034  -0.016772  -0.021328   0.356587  -0.000200
    10  C    0.000001   0.000039  -0.001490   0.000102  -0.018742  -0.000486
    11  C    0.000000   0.000000   0.000084   0.000678  -0.022338  -0.000004
    12  H    0.382375  -0.020285   0.000012  -0.000017   0.000000   0.001293
    13  H    0.382400  -0.020304  -0.000016   0.000013   0.000000  -0.002229
    14  H    0.382274  -0.020703   0.000008   0.000009   0.000001  -0.002231
    15  H   -0.024094   0.381715  -0.001642  -0.001685   0.000062  -0.024397
    16  H    0.000002  -0.001550   0.375957  -0.000689  -0.027160   0.000070
    17  H   -0.000016   0.001251   0.001074   0.382724  -0.020589  -0.021800
    18  H    0.000005  -0.001840  -0.000859   0.380916  -0.022699  -0.024351
    19  H    0.000001   0.000021  -0.025390  -0.024453   0.380039   0.001274
    20  H   -0.002679  -0.022094   0.000066  -0.022639  -0.001045   0.381824
    21  H   -0.001917  -0.021535   0.000031  -0.021843   0.001173   0.382288
    22  H   -0.002815  -0.021305  -0.021744   0.000099  -0.001062  -0.001415
    23  H   -0.001889  -0.020825  -0.021723   0.000023   0.001127   0.001237
    24  H    0.000000  -0.000039  -0.041455  -0.000008  -0.001809   0.000000
    25  H    0.000000   0.000000   0.000955  -0.005271  -0.023336   0.000076
    26  H    0.000000   0.000004   0.000000  -0.000002  -0.001243   0.000024
    27  H    0.000003  -0.000017   0.000019   0.000107  -0.001410  -0.000992
    28  H    0.000000   0.000000   0.000003  -0.000011   0.001069   0.000007
    29  H    0.000000   0.000000   0.000079  -0.000003  -0.001112   0.000000
    30  H    0.000000   0.000000   0.000024   0.000036  -0.002851   0.000000
    31  H    0.000000   0.000000  -0.000012  -0.000016   0.001160   0.000000
              7          8          9         10         11         12
     1  C   -0.024208  -0.000001   0.000000   0.000001   0.000000   0.382375
     2  C    0.363835   0.000227   0.000034   0.000039   0.000000  -0.020285
     3  C    0.360391   0.267650  -0.016772  -0.001490   0.000084   0.000012
     4  C   -0.003964   0.000221  -0.021328   0.000102   0.000678  -0.000017
     5  C   -0.021230  -0.017404   0.356587  -0.018742  -0.022338   0.000000
     6  C   -0.023151   0.000001  -0.000200  -0.000486  -0.000004   0.001293
     7  C    4.766158  -0.018537  -0.000261  -0.000980  -0.000004  -0.002217
     8  O   -0.018537   7.844753  -0.000309  -0.000278  -0.000732   0.000000
     9  C   -0.000261  -0.000309   4.738835   0.363813   0.363646   0.000000
    10  C   -0.000980  -0.000278   0.363813   4.744449  -0.026785   0.000000
    11  C   -0.000004  -0.000732   0.363646  -0.026785   4.750082   0.000000
    12  H   -0.002217   0.000000   0.000000   0.000000   0.000000   0.629449
    13  H    0.001289   0.000000   0.000000   0.000000   0.000000  -0.021601
    14  H   -0.002226   0.000000   0.000000  -0.000002   0.000000  -0.021637
    15  H   -0.024552   0.000001   0.000000  -0.000002   0.000000  -0.002296
    16  H   -0.026654  -0.019442   0.001041  -0.000004  -0.000015   0.000001
    17  H    0.000003  -0.000004  -0.003959   0.000057   0.000048   0.000000
    18  H    0.000035   0.000000   0.001222  -0.000015  -0.000019   0.000000
    19  H    0.001219  -0.000423  -0.025895   0.001142  -0.005879   0.000000
    20  H   -0.001450  -0.000001   0.000128  -0.001032  -0.000002   0.000018
    21  H    0.001250   0.000000  -0.000008   0.000008   0.000000   0.000011
    22  H    0.381134  -0.000592   0.000058  -0.001714   0.000003  -0.000024
    23  H    0.381299  -0.000474  -0.000008   0.000015   0.000000   0.000245
    24  H    0.002655   0.258066  -0.000041   0.000050  -0.000677   0.000000
    25  H   -0.000015  -0.000006   0.381826  -0.025192  -0.025826   0.000000
    26  H   -0.000854   0.000239  -0.020250   0.383279  -0.002590   0.000000
    27  H   -0.000551   0.000011  -0.020003   0.383287   0.001372   0.000000
    28  H    0.000022   0.000003  -0.020074   0.381516  -0.002615   0.000000
    29  H    0.000001  -0.000240  -0.019929  -0.002499   0.382362   0.000000
    30  H    0.000000   0.000014  -0.020151   0.001324   0.381870   0.000000
    31  H    0.000000   0.000010  -0.019723  -0.002170   0.382023   0.000000
             13         14         15         16         17         18
     1  C    0.382400   0.382274  -0.024094   0.000002  -0.000016   0.000005
     2  C   -0.020304  -0.020703   0.381715  -0.001550   0.001251  -0.001840
     3  C   -0.000016   0.000008  -0.001642   0.375957   0.001074  -0.000859
     4  C    0.000013   0.000009  -0.001685  -0.000689   0.382724   0.380916
     5  C    0.000000   0.000001   0.000062  -0.027160  -0.020589  -0.022699
     6  C   -0.002229  -0.002231  -0.024397   0.000070  -0.021800  -0.024351
     7  C    0.001289  -0.002226  -0.024552  -0.026654   0.000003   0.000035
     8  O    0.000000   0.000000   0.000001  -0.019442  -0.000004   0.000000
     9  C    0.000000   0.000000   0.000000   0.001041  -0.003959   0.001222
    10  C    0.000000  -0.000002  -0.000002  -0.000004   0.000057  -0.000015
    11  C    0.000000   0.000000   0.000000  -0.000015   0.000048  -0.000019
    12  H   -0.021601  -0.021637  -0.002296   0.000001   0.000000   0.000000
    13  H    0.630390  -0.021693  -0.002304   0.000000  -0.000001   0.000002
    14  H   -0.021693   0.629766   0.001890  -0.000001   0.000000  -0.000001
    15  H   -0.002304   0.001890   0.652868   0.000313   0.000001   0.000338
    16  H    0.000000  -0.000001   0.000313   0.671270  -0.000011   0.000135
    17  H   -0.000001   0.000000   0.000001  -0.000011   0.639274  -0.023713
    18  H    0.000002  -0.000001   0.000338   0.000135  -0.023713   0.651950
    19  H    0.000000   0.000000  -0.000013  -0.004917  -0.000939  -0.005220
    20  H   -0.000012   0.000349   0.001902   0.000003  -0.002781   0.002035
    21  H    0.000229   0.000002  -0.002923  -0.000008  -0.001783  -0.003381
    22  H    0.000022   0.000354   0.001901   0.001974  -0.000008   0.000004
    23  H    0.000010  -0.000001  -0.002996  -0.003573   0.000002  -0.000007
    24  H    0.000000   0.000000   0.000000  -0.004690   0.000000   0.000002
    25  H    0.000000   0.000000   0.000000  -0.000028  -0.000004   0.000083
    26  H    0.000000   0.000000   0.000000   0.000001  -0.000001   0.000000
    27  H    0.000000   0.000005  -0.000001  -0.000004   0.000036  -0.000006
    28  H    0.000000   0.000000   0.000000   0.000001  -0.000006   0.000001
    29  H    0.000000   0.000000   0.000000  -0.000003  -0.000001   0.000000
    30  H    0.000000   0.000000   0.000000  -0.000001   0.000010  -0.000002
    31  H    0.000000   0.000000   0.000000   0.000001  -0.000003   0.000000
             19         20         21         22         23         24
     1  C    0.000001  -0.002679  -0.001917  -0.002815  -0.001889   0.000000
     2  C    0.000021  -0.022094  -0.021535  -0.021305  -0.020825  -0.000039
     3  C   -0.025390   0.000066   0.000031  -0.021744  -0.021723  -0.041455
     4  C   -0.024453  -0.022639  -0.021843   0.000099   0.000023  -0.000008
     5  C    0.380039  -0.001045   0.001173  -0.001062   0.001127  -0.001809
     6  C    0.001274   0.381824   0.382288  -0.001415   0.001237   0.000000
     7  C    0.001219  -0.001450   0.001250   0.381134   0.381299   0.002655
     8  O   -0.000423  -0.000001   0.000000  -0.000592  -0.000474   0.258066
     9  C   -0.025895   0.000128  -0.000008   0.000058  -0.000008  -0.000041
    10  C    0.001142  -0.001032   0.000008  -0.001714   0.000015   0.000050
    11  C   -0.005879  -0.000002   0.000000   0.000003   0.000000  -0.000677
    12  H    0.000000   0.000018   0.000011  -0.000024   0.000245   0.000000
    13  H    0.000000  -0.000012   0.000229   0.000022   0.000010   0.000000
    14  H    0.000000   0.000349   0.000002   0.000354  -0.000001   0.000000
    15  H   -0.000013   0.001902  -0.002923   0.001901  -0.002996   0.000000
    16  H   -0.004917   0.000003  -0.000008   0.001974  -0.003573  -0.004690
    17  H   -0.000939  -0.002781  -0.001783  -0.000008   0.000002   0.000000
    18  H   -0.005220   0.002035  -0.003381   0.000004  -0.000007   0.000002
    19  H    0.668353  -0.000009  -0.000033  -0.000011  -0.000033   0.000446
    20  H   -0.000009   0.642281  -0.024004   0.000229  -0.000002   0.000000
    21  H   -0.000033  -0.024004   0.642349   0.000001  -0.000032   0.000000
    22  H   -0.000011   0.000229   0.000001   0.630978  -0.024653   0.000012
    23  H   -0.000033  -0.000002  -0.000032  -0.024653   0.635955   0.000016
    24  H    0.000446   0.000000   0.000000   0.000012   0.000016   0.610218
    25  H   -0.000317   0.000059  -0.000010  -0.000007   0.000001  -0.000003
    26  H    0.000004   0.000009   0.000000  -0.000757   0.000023  -0.000033
    27  H    0.000003  -0.000628   0.000013  -0.000642   0.000011  -0.000002
    28  H   -0.000032   0.000019   0.000000   0.000041   0.000000  -0.000001
    29  H    0.000041   0.000000   0.000000  -0.000001   0.000000  -0.000808
    30  H    0.000018   0.000000   0.000000   0.000000   0.000000  -0.000005
    31  H    0.000090   0.000000   0.000000   0.000000   0.000000   0.000010
             25         26         27         28         29         30
     1  C    0.000000   0.000000   0.000003   0.000000   0.000000   0.000000
     2  C    0.000000   0.000004  -0.000017   0.000000   0.000000   0.000000
     3  C    0.000955   0.000000   0.000019   0.000003   0.000079   0.000024
     4  C   -0.005271  -0.000002   0.000107  -0.000011  -0.000003   0.000036
     5  C   -0.023336  -0.001243  -0.001410   0.001069  -0.001112  -0.002851
     6  C    0.000076   0.000024  -0.000992   0.000007   0.000000   0.000000
     7  C   -0.000015  -0.000854  -0.000551   0.000022   0.000001   0.000000
     8  O   -0.000006   0.000239   0.000011   0.000003  -0.000240   0.000014
     9  C    0.381826  -0.020250  -0.020003  -0.020074  -0.019929  -0.020151
    10  C   -0.025192   0.383279   0.383287   0.381516  -0.002499   0.001324
    11  C   -0.025826  -0.002590   0.001372  -0.002615   0.382362   0.381870
    12  H    0.000000   0.000000   0.000000   0.000000   0.000000   0.000000
    13  H    0.000000   0.000000   0.000000   0.000000   0.000000   0.000000
    14  H    0.000000   0.000000   0.000005   0.000000   0.000000   0.000000
    15  H    0.000000   0.000000  -0.000001   0.000000   0.000000   0.000000
    16  H   -0.000028   0.000001  -0.000004   0.000001  -0.000003  -0.000001
    17  H   -0.000004  -0.000001   0.000036  -0.000006  -0.000001   0.000010
    18  H    0.000083   0.000000  -0.000006   0.000001   0.000000  -0.000002
    19  H   -0.000317   0.000004   0.000003  -0.000032   0.000041   0.000018
    20  H    0.000059   0.000009  -0.000628   0.000019   0.000000   0.000000
    21  H   -0.000010   0.000000   0.000013   0.000000   0.000000   0.000000
    22  H   -0.000007  -0.000757  -0.000642   0.000041  -0.000001   0.000000
    23  H    0.000001   0.000023   0.000011   0.000000   0.000000   0.000000
    24  H   -0.000003  -0.000033  -0.000002  -0.000001  -0.000808  -0.000005
    25  H    0.655949   0.001948  -0.002022  -0.003013   0.001952  -0.002029
    26  H    0.001948   0.618232  -0.021395  -0.022034   0.000352   0.000016
    27  H   -0.002022  -0.021395   0.632767  -0.022463   0.000014  -0.000038
    28  H   -0.003013  -0.022034  -0.022463   0.635026  -0.000014   0.000036
    29  H    0.001952   0.000352   0.000014  -0.000014   0.626184  -0.021933
    30  H   -0.002029   0.000016  -0.000038   0.000036  -0.021933   0.637627
    31  H   -0.003150  -0.000013   0.000027   0.000030  -0.021945  -0.021974
             31
     1  C    0.000000
     2  C    0.000000
     3  C   -0.000012
     4  C   -0.000016
     5  C    0.001160
     6  C    0.000000
     7  C    0.000000
     8  O    0.000010
     9  C   -0.019723
    10  C   -0.002170
    11  C    0.382023
    12  H    0.000000
    13  H    0.000000
    14  H    0.000000
    15  H    0.000000
    16  H    0.000001
    17  H   -0.000003
    18  H    0.000000
    19  H    0.000090
    20  H    0.000000
    21  H    0.000000
    22  H    0.000000
    23  H    0.000000
    24  H    0.000010
    25  H   -0.003150
    26  H   -0.000013
    27  H    0.000027
    28  H    0.000030
    29  H   -0.021945
    30  H   -0.021974
    31  H    0.632486
 Mulliken atomic charges:
              1
     1  C   -0.171424
     2  C   -0.022845
     3  C    0.078656
     4  C   -0.099974
     5  C   -0.044200
     6  C   -0.101958
     7  C   -0.108437
     8  O   -0.312753
     9  C   -0.018281
    10  C   -0.177692
    11  C   -0.174682
    12  H    0.054673
    13  H    0.053805
    14  H    0.053838
    15  H    0.045916
    16  H    0.037980
    17  H    0.051137
    18  H    0.045386
    19  H    0.040912
    20  H    0.049454
    21  H    0.050121
    22  H    0.059937
    23  H    0.056252
    24  H    0.178095
    25  H    0.047381
    26  H    0.065038
    27  H    0.052500
    28  H    0.052488
    29  H    0.057503
    30  H    0.048008
    31  H    0.053167
 Sum of Mulliken atomic charges =   0.00000
 Mulliken charges with hydrogens summed into heavy atoms:
              1
     1  C   -0.009108
     2  C    0.023071
     3  C    0.116637
     4  C   -0.003452
     5  C   -0.003288
     6  C   -0.002383
     7  C    0.007752
     8  O   -0.134658
     9  C    0.029100
    10  C   -0.007666
    11  C   -0.016005
 Sum of Mulliken charges with hydrogens summed into heavy atoms =   0.00000
 Electronic spatial extent (au):  <R**2>=           1987.2363
 Charge=              0.0000 electrons
 Dipole moment (field-independent basis, Debye):
    X=              0.0173    Y=             -0.7643    Z=             -1.1565  Tot=              1.3863
 Quadrupole moment (field-independent basis, Debye-Ang):
   XX=            -66.7152   YY=            -69.9782   ZZ=            -66.3260
   XY=             -0.1944   XZ=             -1.2982   YZ=             -2.4030
 Traceless Quadrupole moment (field-independent basis, Debye-Ang):
   XX=              0.9579   YY=             -2.3051   ZZ=              1.3471
   XY=             -0.1944   XZ=             -1.2982   YZ=             -2.4030
 Octapole moment (field-independent basis, Debye-Ang**2):
  XXX=              9.4607  YYY=              4.9002  ZZZ=             -2.9670  XYY=              1.7257
  XXY=              6.3584  XXZ=             -4.3516  XZZ=              4.3324  YZZ=              6.3029
  YYZ=             -4.4216  XYZ=             -4.1334
 Hexadecapole moment (field-independent basis, Debye-Ang**3):
 XXXX=          -1603.9947 YYYY=           -545.4600 ZZZZ=           -401.2541 XXXY=             20.7883
 XXXZ=              4.5804 YYYX=              9.1236 YYYZ=            -10.2815 ZZZX=             -2.8848
 ZZZY=             -6.9352 XXYY=           -340.2010 XXZZ=           -327.8060 YYZZ=           -151.7038
 XXYZ=             -8.1553 YYXZ=             -6.7867 ZZXY=              7.1930
 N-N= 7.017884560928D+02 E-N=-2.475596750169D+03  KE= 4.555544754392D+02
 ******************************Gaussian NBO Version 3.1******************************
             N A T U R A L   A T O M I C   O R B I T A L   A N D
          N A T U R A L   B O N D   O R B I T A L   A N A L Y S I S
 ******************************Gaussian NBO Version 3.1******************************
       /RESON  / : Allow strongly delocalized NBO set
       /NLMO   / : Form Natural Localized Molecular Orbitals
       /NMR /    : Analyze NMR Sheilding Tensor 

 Analyzing the SCF density

 Job title: comment                                                         

 Storage needed:     19864 in NPA,     23691 in NBO,     45933 in NLMO (  33549317 available)


 NATURAL POPULATIONS:  Natural atomic orbital occupancies 
                                                          
   NAO  Atom  No  lang   Type(AO)    Occupancy      Energy
 ----------------------------------------------------------
     1    C    1  S      Cor( 1S)     1.99997     -10.96455
     2    C    1  S      Val( 2S)     1.07951      -0.18077
     3    C    1  px     Val( 2p)     1.00524       0.08668
     4    C    1  py     Val( 2p)     1.02930       0.08439
     5    C    1  pz     Val( 2p)     1.01258       0.08752

     6    C    2  S      Cor( 1S)     1.99997     -10.98912
     7    C    2  S      Val( 2S)     1.07780      -0.19023
     8    C    2  px     Val( 2p)     0.95885       0.10795
     9    C    2  py     Val( 2p)     0.96039       0.10954
    10    C    2  pz     Val( 2p)     0.98683       0.10319

    11    C    3  S      Cor( 1S)     1.99989     -11.03547
    12    C    3  S      Val( 2S)     1.08600      -0.21540
    13    C    3  px     Val( 2p)     0.90335       0.10163
    14    C    3  py     Val( 2p)     0.89559       0.11122
    15    C    3  pz     Val( 2p)     0.96884       0.09019

    16    C    4  S      Cor( 1S)     1.99996     -10.97588
    17    C    4  S      Val( 2S)     1.08574      -0.19105
    18    C    4  px     Val( 2p)     0.97939       0.09936
    19    C    4  py     Val( 2p)     0.99722       0.09480
    20    C    4  pz     Val( 2p)     0.99939       0.09125

    21    C    5  S      Cor( 1S)     1.99995     -10.98761
    22    C    5  S      Val( 2S)     1.10564      -0.21398
    23    C    5  px     Val( 2p)     0.96957       0.10519
    24    C    5  py     Val( 2p)     0.96391       0.10451
    25    C    5  pz     Val( 2p)     0.98396       0.09539

    26    C    6  S      Cor( 1S)     1.99996     -10.97319
    27    C    6  S      Val( 2S)     1.08162      -0.18519
    28    C    6  px     Val( 2p)     0.99093       0.09567
    29    C    6  py     Val( 2p)     0.98588       0.09718
    30    C    6  pz     Val( 2p)     1.00713       0.09572

    31    C    7  S      Cor( 1S)     1.99996     -10.97181
    32    C    7  S      Val( 2S)     1.08883      -0.19030
    33    C    7  px     Val( 2p)     0.98161       0.09564
    34    C    7  py     Val( 2p)     1.00733       0.09252
    35    C    7  pz     Val( 2p)     1.00813       0.09521

    36    O    8  S      Cor( 1S)     1.99999     -20.14271
    37    O    8  S      Val( 2S)     1.74844      -0.99970
    38    O    8  px     Val( 2p)     1.34758      -0.11187
    39    O    8  py     Val( 2p)     1.65424      -0.24176
    40    O    8  pz     Val( 2p)     1.58329      -0.22360

    41    C    9  S      Cor( 1S)     1.99996     -10.99054
    42    C    9  S      Val( 2S)     1.08621      -0.19561
    43    C    9  px     Val( 2p)     0.94921       0.11095
    44    C    9  py     Val( 2p)     0.99161       0.10202
    45    C    9  pz     Val( 2p)     0.94922       0.11965

    46    C   10  S      Cor( 1S)     1.99997     -10.95849
    47    C   10  S      Val( 2S)     1.07957      -0.17476
    48    C   10  px     Val( 2p)     1.02628       0.08991
    49    C   10  py     Val( 2p)     1.03618       0.08716
    50    C   10  pz     Val( 2p)     0.99271       0.09372

    51    C   11  S      Cor( 1S)     1.99997     -10.96150
    52    C   11  S      Val( 2S)     1.08324      -0.18139
    53    C   11  px     Val( 2p)     0.99497       0.08906
    54    C   11  py     Val( 2p)     1.02815       0.08651
    55    C   11  pz     Val( 2p)     1.02366       0.08771

    56    H   12  S      Val( 1S)     0.96269       0.07598

    57    H   13  S      Val( 1S)     0.96346       0.07495

    58    H   14  S      Val( 1S)     0.96351       0.07526

    59    H   15  S      Val( 1S)     0.97809       0.06400

    60    H   16  S      Val( 1S)     0.99720       0.04566

    61    H   17  S      Val( 1S)     0.96998       0.07078

    62    H   18  S      Val( 1S)     0.97546       0.06622

    63    H   19  S      Val( 1S)     0.98382       0.05854

    64    H   20  S      Val( 1S)     0.97154       0.07548

    65    H   21  S      Val( 1S)     0.97007       0.07056

    66    H   22  S      Val( 1S)     0.96172       0.08342

    67    H   23  S      Val( 1S)     0.96432       0.07740

    68    H   24  S      Val( 1S)     0.80927       0.07590

    69    H   25  S      Val( 1S)     0.97817       0.06736

    70    H   26  S      Val( 1S)     0.95316       0.09164

    71    H   27  S      Val( 1S)     0.96484       0.08340

    72    H   28  S      Val( 1S)     0.96401       0.07826

    73    H   29  S      Val( 1S)     0.96085       0.08202

    74    H   30  S      Val( 1S)     0.96912       0.07235

    75    H   31  S      Val( 1S)     0.96408       0.07630


 Summary of Natural Population Analysis:                  
                                                          
                                       Natural Population 
                Natural  -----------------------------------------------
    Atom  No    Charge         Core      Valence    Rydberg      Total
 -----------------------------------------------------------------------
      C    1   -0.12659      1.99997     4.12662    0.00000     6.12659
      C    2    0.01616      1.99997     3.98387    0.00000     5.98384
      C    3    0.14634      1.99989     3.85377    0.00000     5.85366
      C    4   -0.06170      1.99996     4.06174    0.00000     6.06170
      C    5   -0.02304      1.99995     4.02309    0.00000     6.02304
      C    6   -0.06552      1.99996     4.06556    0.00000     6.06552
      C    7   -0.08585      1.99996     4.08590    0.00000     6.08585
      O    8   -0.33355      1.99999     6.33356    0.00000     8.33355
      C    9    0.02380      1.99996     3.97624    0.00000     5.97620
      C   10   -0.13470      1.99997     4.13473    0.00000     6.13470
      C   11   -0.12999      1.99997     4.13002    0.00000     6.12999
      H   12    0.03731      0.00000     0.96269    0.00000     0.96269
      H   13    0.03654      0.00000     0.96346    0.00000     0.96346
      H   14    0.03649      0.00000     0.96351    0.00000     0.96351
      H   15    0.02191      0.00000     0.97809    0.00000     0.97809
      H   16    0.00280      0.00000     0.99720    0.00000     0.99720
      H   17    0.03002      0.00000     0.96998    0.00000     0.96998
      H   18    0.02454      0.00000     0.97546    0.00000     0.97546
      H   19    0.01618      0.00000     0.98382    0.00000     0.98382
      H   20    0.02846      0.00000     0.97154    0.00000     0.97154
      H   21    0.02993      0.00000     0.97007    0.00000     0.97007
      H   22    0.03828      0.00000     0.96172    0.00000     0.96172
      H   23    0.03568      0.00000     0.96432    0.00000     0.96432
      H   24    0.19073      0.00000     0.80927    0.00000     0.80927
      H   25    0.02183      0.00000     0.97817    0.00000     0.97817
      H   26    0.04684      0.00000     0.95316    0.00000     0.95316
      H   27    0.03516      0.00000     0.96484    0.00000     0.96484
      H   28    0.03599      0.00000     0.96401    0.00000     0.96401
      H   29    0.03915      0.00000     0.96085    0.00000     0.96085
      H   30    0.03088      0.00000     0.96912    0.00000     0.96912
      H   31    0.03592      0.00000     0.96408    0.00000     0.96408
 =======================================================================
   * Total *    0.00000     21.99954    66.00046    0.00000    88.00000

                                 Natural Population      
 --------------------------------------------------------
   Core                      21.99954 ( 99.9979% of  22)
   Valence                   66.00046 (100.0007% of  66)
   Natural Minimal Basis     88.00000 (100.0000% of  88)
   Natural Rydberg Basis      0.00000 (  0.0000% of  88)
 --------------------------------------------------------

    Atom  No          Natural Electron Configuration
 ----------------------------------------------------------------------------
      C    1      [core]2S( 1.08)2p( 3.05)
      C    2      [core]2S( 1.08)2p( 2.91)
      C    3      [core]2S( 1.09)2p( 2.77)
      C    4      [core]2S( 1.09)2p( 2.98)
      C    5      [core]2S( 1.11)2p( 2.92)
      C    6      [core]2S( 1.08)2p( 2.98)
      C    7      [core]2S( 1.09)2p( 3.00)
      O    8      [core]2S( 1.75)2p( 4.59)
      C    9      [core]2S( 1.09)2p( 2.89)
      C   10      [core]2S( 1.08)2p( 3.06)
      C   11      [core]2S( 1.08)2p( 3.05)
      H   12            1S( 0.96)
      H   13            1S( 0.96)
      H   14            1S( 0.96)
      H   15            1S( 0.98)
      H   16            1S( 1.00)
      H   17            1S( 0.97)
      H   18            1S( 0.98)
      H   19            1S( 0.98)
      H   20            1S( 0.97)
      H   21            1S( 0.97)
      H   22            1S( 0.96)
      H   23            1S( 0.96)
      H   24            1S( 0.81)
      H   25            1S( 0.98)
      H   26            1S( 0.95)
      H   27            1S( 0.96)
      H   28            1S( 0.96)
      H   29            1S( 0.96)
      H   30            1S( 0.97)
      H   31            1S( 0.96)


 NATURAL BOND ORBITAL ANALYSIS:

                       Occupancies       Lewis Structure    Low   High
           Occ.    -------------------  -----------------   occ   occ
  Cycle   Thresh.   Lewis   Non-Lewis     CR  BD  3C  LP    (L)   (NL)   Dev
 =============================================================================
   1(1)    1.90    87.63425   0.36575     11  31   0   2     0      0    0.02
 -----------------------------------------------------------------------------

 Structure accepted: No low occupancy Lewis orbitals

 --------------------------------------------------------
   Core                     21.99953 ( 99.998% of  22)
   Valence Lewis            65.63472 ( 99.447% of  66)
  ==================       ============================
   Total Lewis              87.63425 ( 99.584% of  88)
  -----------------------------------------------------
   Valence non-Lewis         0.36575 (  0.416% of  88)
   Rydberg non-Lewis         0.00000 (  0.000% of  88)
  ==================       ============================
   Total non-Lewis           0.36575 (  0.416% of  88)
 --------------------------------------------------------


       (Occupancy)   Bond orbital/ Coefficients/ Hybrids
 ---------------------------------------------------------------------------------
     1. (1.98893) BD ( 1) C   1 - C   2  
                ( 50.78%)   0.7126* C   1 s( 25.74%)p 2.89( 74.26%)
                                            0.0001  0.5073  0.6703 -0.0022 -0.5416
                ( 49.22%)   0.7016* C   2 s( 25.20%)p 2.97( 74.80%)
                                            0.0000  0.5020 -0.6574 -0.0027  0.5620
     2. (1.99504) BD ( 1) C   1 - H  12  
                ( 51.88%)   0.7203* C   1 s( 24.72%)p 3.05( 75.28%)
                                            0.0000  0.4971 -0.3507  0.7931  0.0283
                ( 48.12%)   0.6937* H  12 s(100.00%)
                                            1.0000
     3. (1.99496) BD ( 1) C   1 - H  13  
                ( 51.84%)   0.7200* C   1 s( 24.72%)p 3.04( 75.28%)
                                            0.0000  0.4972 -0.5982 -0.5665 -0.2722
                ( 48.16%)   0.6940* H  13 s(100.00%)
                                            1.0000
     4. (1.99541) BD ( 1) C   1 - H  14  
                ( 51.87%)   0.7202* C   1 s( 24.83%)p 3.03( 75.17%)
                                            0.0000  0.4983  0.2644 -0.2238  0.7948
                ( 48.13%)   0.6938* H  14 s(100.00%)
                                            1.0000
     5. (1.98524) BD ( 1) C   2 - C   6  
                ( 49.63%)   0.7045* C   2 s( 25.12%)p 2.98( 74.88%)
                                            0.0000  0.5012  0.3503 -0.7902 -0.0418
                ( 50.37%)   0.7097* C   6 s( 25.41%)p 2.94( 74.59%)
                                            0.0001  0.5041 -0.3295  0.7963  0.0569
     6. (1.98321) BD ( 1) C   2 - C   7  
                ( 49.43%)   0.7030* C   2 s( 25.11%)p 2.98( 74.89%)
                                            0.0000  0.5011  0.5990  0.5699  0.2558
                ( 50.57%)   0.7111* C   7 s( 25.70%)p 2.89( 74.30%)
                                            0.0001  0.5070 -0.5781 -0.5882 -0.2505
     7. (1.98503) BD ( 1) C   2 - H  15  
                ( 51.04%)   0.7144* C   2 s( 24.57%)p 3.07( 75.43%)
                                            0.0000  0.4957 -0.2939  0.2256 -0.7855
                ( 48.96%)   0.6997* H  15 s(100.00%)
                                            1.0000
     8. (1.98294) BD ( 1) C   3 - C   5  
                ( 49.77%)   0.7055* C   3 s( 26.10%)p 2.83( 73.90%)
                                            0.0001  0.5109  0.3586 -0.7796 -0.0520
                ( 50.23%)   0.7087* C   5 s( 25.75%)p 2.88( 74.25%)
                                            0.0000  0.5075 -0.3528  0.7682  0.1671
     9. (1.98704) BD ( 1) C   3 - C   7  
                ( 50.09%)   0.7078* C   3 s( 26.58%)p 2.76( 73.42%)
                                            0.0000  0.5155 -0.6646 -0.0039  0.5408
                ( 49.91%)   0.7064* C   7 s( 25.19%)p 2.97( 74.81%)
                                            0.0001  0.5019  0.6974 -0.0355 -0.5104
    10. (1.98857) BD ( 1) C   3 - O   8  
                ( 41.07%)   0.6409* C   3 s( 22.67%)p 3.41( 77.33%)
                                            0.0000  0.4761  0.6030  0.5699  0.2914
                ( 58.93%)   0.7677* O   8 s( 16.55%)p 5.04( 83.45%)
                                            0.0000  0.4068 -0.5638 -0.6297 -0.3465
    11. (1.98833) BD ( 1) C   3 - H  16  
                ( 50.39%)   0.7099* C   3 s( 24.66%)p 3.06( 75.34%)
                                            0.0000  0.4965 -0.2570  0.2597 -0.7874
                ( 49.61%)   0.7043* H  16 s(100.00%)
                                            1.0000
    12. (1.98335) BD ( 1) C   4 - C   5  
                ( 50.37%)   0.7098* C   4 s( 25.52%)p 2.92( 74.48%)
                                            0.0001  0.5051  0.5957  0.5770  0.2388
                ( 49.63%)   0.7045* C   5 s( 24.96%)p 3.01( 75.04%)
                                            0.0000  0.4996 -0.6226 -0.5835 -0.1493
    13. (1.99056) BD ( 1) C   4 - C   6  
                ( 50.03%)   0.7073* C   4 s( 25.51%)p 2.92( 74.49%)
                                            0.0000  0.5050 -0.6728  0.0290  0.5399
                ( 49.97%)   0.7069* C   6 s( 25.27%)p 2.96( 74.73%)
                                            0.0000  0.5027  0.6975  0.0069 -0.5107
    14. (1.98953) BD ( 1) C   4 - H  17  
                ( 51.49%)   0.7176* C   4 s( 25.04%)p 2.99( 74.96%)
                                            0.0000  0.5004  0.3440 -0.7945  0.0033
                ( 48.51%)   0.6965* H  17 s(100.00%)
                                            1.0000
    15. (1.99044) BD ( 1) C   4 - H  18  
                ( 51.21%)   0.7156* C   4 s( 23.94%)p 3.18( 76.06%)
                                            0.0000  0.4893 -0.2724  0.1869 -0.8072
                ( 48.79%)   0.6985* H  18 s(100.00%)
                                            1.0000
    16. (1.98018) BD ( 1) C   5 - C   9  
                ( 50.28%)   0.7091* C   5 s( 25.90%)p 2.86( 74.10%)
                                            0.0001  0.5090  0.4892 -0.2553  0.6607
                ( 49.72%)   0.7051* C   9 s( 25.69%)p 2.89( 74.31%)
                                            0.0001  0.5068 -0.5565  0.3288 -0.5704
    17. (1.98306) BD ( 1) C   5 - H  19  
                ( 50.66%)   0.7117* C   5 s( 23.38%)p 3.28( 76.62%)
                                            0.0000  0.4836  0.4986  0.0653 -0.7165
                ( 49.34%)   0.7024* H  19 s(100.00%)
                                            1.0000
    18. (1.98963) BD ( 1) C   6 - H  20  
                ( 51.46%)   0.7174* C   6 s( 24.79%)p 3.03( 75.21%)
                                            0.0000  0.4979  0.2225 -0.2796  0.7902
                ( 48.54%)   0.6967* H  20 s(100.00%)
                                            1.0000
    19. (1.98912) BD ( 1) C   6 - H  21  
                ( 51.45%)   0.7173* C   6 s( 24.53%)p 3.08( 75.47%)
                                            0.0000  0.4953 -0.5962 -0.5364 -0.3340
                ( 48.55%)   0.6968* H  21 s(100.00%)
                                            1.0000
    20. (1.98969) BD ( 1) C   7 - H  22  
                ( 51.97%)   0.7209* C   7 s( 24.72%)p 3.05( 75.28%)
                                            0.0000  0.4972  0.2353 -0.1525  0.8211
                ( 48.03%)   0.6931* H  22 s(100.00%)
                                            1.0000
    21. (1.98884) BD ( 1) C   7 - H  23  
                ( 51.74%)   0.7193* C   7 s( 24.39%)p 3.10( 75.61%)
                                            0.0000  0.4938 -0.3522  0.7934 -0.0507
                ( 48.26%)   0.6947* H  23 s(100.00%)
                                            1.0000
    22. (1.98913) BD ( 1) O   8 - H  24  
                ( 59.54%)   0.7716* O   8 s( 16.65%)p 5.01( 83.35%)
                                            0.0000 -0.4080 -0.6414 -0.0460  0.6481
                ( 40.46%)   0.6361* H  24 s(100.00%)
                                           -1.0000
    23. (1.99031) BD ( 1) C   9 - C  10  
                ( 49.22%)   0.7016* C   9 s( 25.58%)p 2.91( 74.42%)
                                            0.0000  0.5058 -0.2675  0.1621  0.8039
                ( 50.78%)   0.7126* C  10 s( 25.94%)p 2.85( 74.06%)
                                            0.0001  0.5093  0.2215 -0.1202 -0.8228
    24. (1.98960) BD ( 1) C   9 - C  11  
                ( 48.92%)   0.6994* C   9 s( 24.58%)p 3.07( 75.42%)
                                            0.0000  0.4957  0.7844  0.3522 -0.1218
                ( 51.08%)   0.7147* C  11 s( 25.83%)p 2.87( 74.17%)
                                            0.0001  0.5082 -0.8013 -0.2981  0.1042
    25. (1.98362) BD ( 1) C   9 - H  25  
                ( 50.97%)   0.7139* C   9 s( 24.15%)p 3.14( 75.85%)
                                            0.0000  0.4915  0.0580 -0.8612 -0.1163
                ( 49.03%)   0.7002* H  25 s(100.00%)
                                            1.0000
    26. (1.99472) BD ( 1) C  10 - H  26  
                ( 52.39%)   0.7238* C  10 s( 24.96%)p 3.01( 75.04%)
                                            0.0000  0.4996 -0.0111  0.8467  0.1825
                ( 47.61%)   0.6900* H  26 s(100.00%)
                                            1.0000
    27. (1.99359) BD ( 1) C  10 - H  27  
                ( 51.78%)   0.7196* C  10 s( 24.90%)p 3.02( 75.10%)
                                            0.0000  0.4990 -0.7851 -0.3363  0.1467
                ( 48.22%)   0.6944* H  27 s(100.00%)
                                            1.0000
    28. (1.99396) BD ( 1) C  10 - H  28  
                ( 51.78%)   0.7196* C  10 s( 24.20%)p 3.13( 75.80%)
                                            0.0000  0.4919  0.5783 -0.3943  0.5178
                ( 48.22%)   0.6944* H  28 s(100.00%)
                                            1.0000
    29. (1.99540) BD ( 1) C  11 - H  29  
                ( 52.03%)   0.7214* C  11 s( 25.00%)p 3.00( 75.00%)
                                            0.0000  0.5000  0.0220  0.8502  0.1637
                ( 47.97%)   0.6926* H  29 s(100.00%)
                                            1.0000
    30. (1.99486) BD ( 1) C  11 - H  30  
                ( 51.56%)   0.7181* C  11 s( 24.66%)p 3.05( 75.34%)
                                            0.0000  0.4966  0.2617 -0.1418 -0.8153
                ( 48.44%)   0.6960* H  30 s(100.00%)
                                            1.0000
    31. (1.99484) BD ( 1) C  11 - H  31  
                ( 51.80%)   0.7197* C  11 s( 24.52%)p 3.08( 75.48%)
                                            0.0000  0.4951  0.5376 -0.4102  0.5455
                ( 48.20%)   0.6943* H  31 s(100.00%)
                                            1.0000
    32. (1.99997) CR ( 1) C   1           s(100.00%)
                                            1.0000  0.0000 -0.0001  0.0000  0.0001
    33. (1.99997) CR ( 1) C   2           s(100.00%)
                                            1.0000  0.0000 -0.0001  0.0000  0.0000
    34. (1.99989) CR ( 1) C   3           s(100.00%)
                                            1.0000  0.0000  0.0000  0.0001  0.0000
    35. (1.99996) CR ( 1) C   4           s(100.00%)
                                            1.0000  0.0000  0.0000 -0.0001 -0.0001
    36. (1.99995) CR ( 1) C   5           s(100.00%)
                                            1.0000  0.0000  0.0000  0.0000 -0.0001
    37. (1.99996) CR ( 1) C   6           s(100.00%)
                                            1.0000  0.0000  0.0000 -0.0001  0.0000
    38. (1.99995) CR ( 1) C   7           s(100.00%)
                                            1.0000 -0.0001  0.0000  0.0001  0.0000
    39. (1.99999) CR ( 1) O   8           s(100.00%)
                                            1.0000  0.0000  0.0000  0.0000  0.0000
    40. (1.99996) CR ( 1) C   9           s(100.00%)
                                            1.0000  0.0000  0.0001  0.0000  0.0000
    41. (1.99997) CR ( 1) C  10           s(100.00%)
                                            1.0000  0.0000  0.0000  0.0000  0.0001
    42. (1.99997) CR ( 1) C  11           s(100.00%)
                                            1.0000  0.0000  0.0001  0.0000  0.0000
    43. (1.99291) LP ( 1) O   8           s( 66.59%)p 0.50( 33.41%)
                                            0.0000  0.8160 -0.0107  0.2501  0.5210
    44. (1.97269) LP ( 2) O   8           s(  0.21%)p99.99( 99.79%)
                                            0.0000  0.0454 -0.5202  0.7341 -0.4341
    45. (0.00985) BD*( 1) C   1 - C   2  
                ( 49.22%)   0.7016* C   1 s( 25.74%)p 2.89( 74.26%)
                                           -0.0001 -0.5073 -0.6703  0.0022  0.5416
                ( 50.78%)  -0.7126* C   2 s( 25.20%)p 2.97( 74.80%)
                                            0.0000 -0.5020  0.6574  0.0027 -0.5620
    46. (0.00512) BD*( 1) C   1 - H  12  
                ( 48.12%)   0.6937* C   1 s( 24.72%)p 3.05( 75.28%)
                                            0.0000 -0.4971  0.3507 -0.7931 -0.0283
                ( 51.88%)  -0.7203* H  12 s(100.00%)
                                           -1.0000
    47. (0.00508) BD*( 1) C   1 - H  13  
                ( 48.16%)   0.6940* C   1 s( 24.72%)p 3.04( 75.28%)
                                            0.0000 -0.4972  0.5982  0.5665  0.2722
                ( 51.84%)  -0.7200* H  13 s(100.00%)
                                           -1.0000
    48. (0.00586) BD*( 1) C   1 - H  14  
                ( 48.13%)   0.6938* C   1 s( 24.83%)p 3.03( 75.17%)
                                            0.0000 -0.4983 -0.2644  0.2238 -0.7948
                ( 51.87%)  -0.7202* H  14 s(100.00%)
                                           -1.0000
    49. (0.01607) BD*( 1) C   2 - C   6  
                ( 50.37%)   0.7097* C   2 s( 25.12%)p 2.98( 74.88%)
                                            0.0000  0.5012  0.3503 -0.7902 -0.0418
                ( 49.63%)  -0.7045* C   6 s( 25.41%)p 2.94( 74.59%)
                                            0.0001  0.5041 -0.3295  0.7963  0.0569
    50. (0.01462) BD*( 1) C   2 - C   7  
                ( 50.57%)   0.7111* C   2 s( 25.11%)p 2.98( 74.89%)
                                            0.0000  0.5011  0.5990  0.5699  0.2558
                ( 49.43%)  -0.7030* C   7 s( 25.70%)p 2.89( 74.30%)
                                            0.0001  0.5070 -0.5781 -0.5882 -0.2505
    51. (0.01206) BD*( 1) C   2 - H  15  
                ( 48.96%)   0.6997* C   2 s( 24.57%)p 3.07( 75.43%)
                                            0.0000 -0.4957  0.2939 -0.2256  0.7855
                ( 51.04%)  -0.7144* H  15 s(100.00%)
                                           -1.0000
    52. (0.03548) BD*( 1) C   3 - C   5  
                ( 50.23%)   0.7087* C   3 s( 26.10%)p 2.83( 73.90%)
                                            0.0001  0.5109  0.3586 -0.7796 -0.0520
                ( 49.77%)  -0.7055* C   5 s( 25.75%)p 2.88( 74.25%)
                                            0.0000  0.5075 -0.3528  0.7682  0.1671
    53. (0.02278) BD*( 1) C   3 - C   7  
                ( 49.91%)   0.7064* C   3 s( 26.58%)p 2.76( 73.42%)
                                            0.0000 -0.5155  0.6646  0.0039 -0.5408
                ( 50.09%)  -0.7078* C   7 s( 25.19%)p 2.97( 74.81%)
                                           -0.0001 -0.5019 -0.6974  0.0355  0.5104
    54. (0.02168) BD*( 1) C   3 - O   8  
                ( 58.93%)   0.7677* C   3 s( 22.67%)p 3.41( 77.33%)
                                            0.0000  0.4761  0.6030  0.5699  0.2914
                ( 41.07%)  -0.6409* O   8 s( 16.55%)p 5.04( 83.45%)
                                            0.0000  0.4068 -0.5638 -0.6297 -0.3465
    55. (0.02159) BD*( 1) C   3 - H  16  
                ( 49.61%)   0.7043* C   3 s( 24.66%)p 3.06( 75.34%)
                                            0.0000 -0.4965  0.2570 -0.2597  0.7874
                ( 50.39%)  -0.7099* H  16 s(100.00%)
                                           -1.0000
    56. (0.01627) BD*( 1) C   4 - C   5  
                ( 49.63%)   0.7045* C   4 s( 25.52%)p 2.92( 74.48%)
                                           -0.0001 -0.5051 -0.5957 -0.5770 -0.2388
                ( 50.37%)  -0.7098* C   5 s( 24.96%)p 3.01( 75.04%)
                                            0.0000 -0.4996  0.6226  0.5835  0.1493
    57. (0.01236) BD*( 1) C   4 - C   6  
                ( 49.97%)   0.7069* C   4 s( 25.51%)p 2.92( 74.49%)
                                            0.0000 -0.5050  0.6728 -0.0290 -0.5399
                ( 50.03%)  -0.7073* C   6 s( 25.27%)p 2.96( 74.73%)
                                            0.0000 -0.5027 -0.6975 -0.0069  0.5107
    58. (0.00936) BD*( 1) C   4 - H  17  
                ( 48.51%)   0.6965* C   4 s( 25.04%)p 2.99( 74.96%)
                                            0.0000 -0.5004 -0.3440  0.7945 -0.0033
                ( 51.49%)  -0.7176* H  17 s(100.00%)
                                           -1.0000
    59. (0.00859) BD*( 1) C   4 - H  18  
                ( 48.79%)   0.6985* C   4 s( 23.94%)p 3.18( 76.06%)
                                            0.0000 -0.4893  0.2724 -0.1869  0.8072
                ( 51.21%)  -0.7156* H  18 s(100.00%)
                                           -1.0000
    60. (0.02355) BD*( 1) C   5 - C   9  
                ( 49.72%)   0.7051* C   5 s( 25.90%)p 2.86( 74.10%)
                                           -0.0001 -0.5090 -0.4892  0.2553 -0.6607
                ( 50.28%)  -0.7091* C   9 s( 25.69%)p 2.89( 74.31%)
                                           -0.0001 -0.5068  0.5565 -0.3288  0.5704
    61. (0.01049) BD*( 1) C   5 - H  19  
                ( 49.34%)   0.7024* C   5 s( 23.38%)p 3.28( 76.62%)
                                            0.0000 -0.4836 -0.4986 -0.0653  0.7165
                ( 50.66%)  -0.7117* H  19 s(100.00%)
                                           -1.0000
    62. (0.01120) BD*( 1) C   6 - H  20  
                ( 48.54%)   0.6967* C   6 s( 24.79%)p 3.03( 75.21%)
                                            0.0000 -0.4979 -0.2225  0.2796 -0.7902
                ( 51.46%)  -0.7174* H  20 s(100.00%)
                                           -1.0000
    63. (0.00836) BD*( 1) C   6 - H  21  
                ( 48.55%)   0.6968* C   6 s( 24.53%)p 3.08( 75.47%)
                                            0.0000 -0.4953  0.5962  0.5364  0.3340
                ( 51.45%)  -0.7173* H  21 s(100.00%)
                                           -1.0000
    64. (0.01161) BD*( 1) C   7 - H  22  
                ( 48.03%)   0.6931* C   7 s( 24.72%)p 3.05( 75.28%)
                                            0.0000 -0.4972 -0.2353  0.1525 -0.8211
                ( 51.97%)  -0.7209* H  22 s(100.00%)
                                           -1.0000
    65. (0.00855) BD*( 1) C   7 - H  23  
                ( 48.26%)   0.6947* C   7 s( 24.39%)p 3.10( 75.61%)
                                            0.0000 -0.4938  0.3522 -0.7934  0.0507
                ( 51.74%)  -0.7193* H  23 s(100.00%)
                                           -1.0000
    66. (0.00735) BD*( 1) O   8 - H  24  
                ( 40.46%)   0.6361* O   8 s( 16.65%)p 5.01( 83.35%)
                                            0.0000  0.4080  0.6414  0.0460 -0.6481
                ( 59.54%)  -0.7716* H  24 s(100.00%)
                                            1.0000
    67. (0.01042) BD*( 1) C   9 - C  10  
                ( 50.78%)   0.7126* C   9 s( 25.58%)p 2.91( 74.42%)
                                            0.0000  0.5058 -0.2675  0.1621  0.8039
                ( 49.22%)  -0.7016* C  10 s( 25.94%)p 2.85( 74.06%)
                                            0.0001  0.5093  0.2215 -0.1202 -0.8228
    68. (0.01014) BD*( 1) C   9 - C  11  
                ( 51.08%)   0.7147* C   9 s( 24.58%)p 3.07( 75.42%)
                                            0.0000  0.4957  0.7844  0.3522 -0.1218
                ( 48.92%)  -0.6994* C  11 s( 25.83%)p 2.87( 74.17%)
                                            0.0001  0.5082 -0.8013 -0.2981  0.1042
    69. (0.01099) BD*( 1) C   9 - H  25  
                ( 49.03%)   0.7002* C   9 s( 24.15%)p 3.14( 75.85%)
                                            0.0000 -0.4915 -0.0580  0.8612  0.1163
                ( 50.97%)  -0.7139* H  25 s(100.00%)
                                           -1.0000
    70. (0.00665) BD*( 1) C  10 - H  26  
                ( 47.61%)   0.6900* C  10 s( 24.96%)p 3.01( 75.04%)
                                            0.0000 -0.4996  0.0111 -0.8467 -0.1825
                ( 52.39%)  -0.7238* H  26 s(100.00%)
                                           -1.0000
    71. (0.00693) BD*( 1) C  10 - H  27  
                ( 48.22%)   0.6944* C  10 s( 24.90%)p 3.02( 75.10%)
                                            0.0000 -0.4990  0.7851  0.3363 -0.1467
                ( 51.78%)  -0.7196* H  27 s(100.00%)
                                           -1.0000
    72. (0.00506) BD*( 1) C  10 - H  28  
                ( 48.22%)   0.6944* C  10 s( 24.20%)p 3.13( 75.80%)
                                            0.0000 -0.4919 -0.5783  0.3943 -0.5178
[...]
   38     200.0146       -0.0014     200.0160         0.0019     200.0127
 Sum      215.9276      -23.0440     238.9715       -25.6243     241.5518

 Contributions to Isotropic shielding for atom    8 (   360.6227 ppm):
                         Standard Origin              Atomic Origin
 NLMO      Total    Paramagnetic  Diamagnetic   Paramagnetic  Diamagnetic
   10      27.1926       10.1635      17.0291        16.6837      10.5089
   11      -0.4152       -0.6254       0.2102        -1.6632       1.2480
   22      21.8003       11.6932      10.1071         7.3745      14.4258
   29      -0.3384       -1.2259       0.8874        -0.8360       0.4976
   39     271.1859       -0.0057     271.1916        -0.0036     271.1896
   43      35.0502       -0.0907      35.1409        -2.3624      37.4127
   44       5.1644      -33.1877      38.3521       -34.7252      39.8896
 Sum      359.6399      -13.2786     372.9184       -15.5322     375.1721

 Contributions to Isotropic shielding for atom    9 (   210.5446 ppm):
                         Standard Origin              Atomic Origin
 NLMO      Total    Paramagnetic  Diamagnetic   Paramagnetic  Diamagnetic
   10      -0.0179       -0.4011       0.3833        -1.1606       1.1428
   14      -0.5144       -0.9915       0.4770        -1.4269       0.9124
   16       3.9283       -9.1180      13.0463        -3.8021       7.7304
   23       0.2921       -7.7452       8.0373        -7.3519       7.6440
   24      -2.4697       -4.5685       2.0988        -9.8988       7.4291
   25       4.3936       -2.2818       6.6754        -6.4401      10.8337
   26       0.7162       -0.2954       1.0116        -0.3279       1.0442
   27       0.5501       -0.4978       1.0479        -0.4535       1.0036
   28       0.5637       -0.1024       0.6661        -0.4529       1.0166
   29       1.0325       -0.3864       1.4189         0.0091       1.0234
   30       0.7747       -0.4733       1.2480        -0.2322       1.0069
   31       0.6314       -0.4416       1.0731        -0.3877       1.0191
   40     199.9214       -0.0020     199.9234         0.0024     199.9190
 Sum      209.8021      -27.3051     237.1072       -31.9231     241.7253

 Contributions to Isotropic shielding for atom   10 (   222.5132 ppm):
                         Standard Origin              Atomic Origin
 NLMO      Total    Paramagnetic  Diamagnetic   Paramagnetic  Diamagnetic
   10       0.0737       -0.3532       0.4269        -0.9995       1.0732
   23       3.0708       -8.2545      11.3254        -4.7899       7.8607
   25       0.2950       -0.2123       0.5073        -0.7099       1.0049
   26       6.6374       -4.8642      11.5016        -4.6853      11.3227
   27       6.7313       -5.9264      12.6577        -4.3578      11.0891
   28       5.7348        1.8999       3.8349        -5.3094      11.0441
   41     200.0783       -0.0015     200.0798         0.0010     200.0773
 Sum      222.6213      -17.7122     240.3335       -20.8507     243.4720

 Contributions to Isotropic shielding for atom   11 (   218.8539 ppm):
                         Standard Origin              Atomic Origin
 NLMO      Total    Paramagnetic  Diamagnetic   Paramagnetic  Diamagnetic
   17      -0.4114       -0.3889      -0.0225        -1.4001       0.9887
   23      -0.4680        0.0317      -0.4997        -1.2198       0.7519
   24       4.5716      -12.0503      16.6219        -3.4833       8.0549
   25       0.2686        0.2058       0.0628        -0.7913       1.0598
   29       5.8643       -4.9454      10.8097        -5.3589      11.2232
   30       4.4442       -2.7555       7.1997        -6.5720      11.0162
   31       4.3159        0.7787       3.5372        -6.7780      11.0939
   42     200.0770       -0.0041     200.0812         0.0023     200.0747
 Sum      218.6622      -19.1282     237.7904       -25.6011     244.2634

 Contributions to Isotropic shielding for atom   12 (    32.3849 ppm):
                         Standard Origin              Atomic Origin
 NLMO      Total    Paramagnetic  Diamagnetic   Paramagnetic  Diamagnetic
    1       1.4058       -0.4304       1.8362         0.4136       0.9922
    2      26.3253        0.1593      26.1660         0.4320      25.8933
    3       1.8909        2.3924      -0.5014         0.0508       1.8402
    4       1.9769        1.1061       0.8709         0.1355       1.8414
    6      -0.1100        0.5127      -0.6227        -1.0130       0.9030
 Sum       31.4890        3.7400      27.7490         0.0189      31.4701

 Contributions to Isotropic shielding for atom   13 (    32.4306 ppm):
                         Standard Origin              Atomic Origin
 NLMO      Total    Paramagnetic  Diamagnetic   Paramagnetic  Diamagnetic
    1       1.3314       -0.1742       1.5056         0.3370       0.9944
    2       1.9164        2.3328      -0.4164         0.0749       1.8415
    3      26.3544        0.1086      26.2457         0.4408      25.9136
    4       1.9591        1.3204       0.6387         0.1176       1.8415
    5      -0.1410        0.6430      -0.7840        -1.0466       0.9056
 Sum       31.4203        4.2307      27.1896        -0.0763      31.4966

 Contributions to Isotropic shielding for atom   14 (    32.6220 ppm):
                         Standard Origin              Atomic Origin
 NLMO      Total    Paramagnetic  Diamagnetic   Paramagnetic  Diamagnetic
    1       1.6777       -1.3345       3.0122         0.7895       0.8882
    2       1.9750        1.3856       0.5893         0.1485       1.8265
    3       1.9520        1.6736       0.2783         0.1252       1.8268
    4      26.3072        0.3404      25.9668         0.4163      25.8909
 Sum       31.9119        2.0651      29.8467         1.4795      30.4324

 Contributions to Isotropic shielding for atom   15 (    32.8227 ppm):
                         Standard Origin              Atomic Origin
 NLMO      Total    Paramagnetic  Diamagnetic   Paramagnetic  Diamagnetic
    1       0.8109        2.3131      -1.5022        -0.1450       0.9558
    5       1.3626        0.7278       0.6348         0.4821       0.8805
    6       1.4474        0.3912       1.0562         0.5678       0.8796
    7      26.5217       -0.0532      26.5749         0.4261      26.0956
 Sum       30.1426        3.3789      26.7637         1.3311      28.8115

 Contributions to Isotropic shielding for atom   16 (    31.9168 ppm):
                         Standard Origin              Atomic Origin
 NLMO      Total    Paramagnetic  Diamagnetic   Paramagnetic  Diamagnetic
    8       1.0016        0.3212       0.6805        -0.0477       1.0493
    9       0.8073        0.5256       0.2817        -0.3958       1.2031
   10       0.5007        1.3627      -0.8620        -1.0809       1.5817
   11      26.8646        0.2164      26.6482         0.7513      26.1133
   22       0.2631       -0.7526       1.0157        -0.7468       1.0098
 Sum       29.4373        1.6733      27.7641        -1.5199      30.9572

 Contributions to Isotropic shielding for atom   17 (    32.4536 ppm):
                         Standard Origin              Atomic Origin
 NLMO      Total    Paramagnetic  Diamagnetic   Paramagnetic  Diamagnetic
   12       1.3482        0.4312       0.9170         0.4480       0.9002
   13       1.0555        1.0200       0.0355         0.0318       1.0237
   14      26.4500        0.0901      26.3599         0.5105      25.9395
   15       1.9898        1.7589       0.2309         0.2504       1.7395
   16      -0.0680        0.0528      -0.1208        -1.1730       1.1049
 Sum       30.7755        3.3529      27.4225         0.0676      30.7079

 Contributions to Isotropic shielding for atom   18 (    32.5048 ppm):
                         Standard Origin              Atomic Origin
 NLMO      Total    Paramagnetic  Diamagnetic   Paramagnetic  Diamagnetic
   12       1.3343        0.3420       0.9923         0.2885       1.0458
   13       1.0814        0.9816       0.0999         0.0613       1.0201
   14       1.9154        1.7113       0.2041         0.1141       1.8013
   15      26.5716        0.0269      26.5446         0.4566      26.1150
   17       0.0104       -0.1106       0.1210        -1.0162       1.0266
 Sum       30.9131        2.9512      27.9620        -0.0957      31.0088

 Contributions to Isotropic shielding for atom   19 (    32.7764 ppm):
                         Standard Origin              Atomic Origin
 NLMO      Total    Paramagnetic  Diamagnetic   Paramagnetic  Diamagnetic
    8       1.2417        1.1189       0.1228         0.1250       1.1167
   12       1.1397        1.3721      -0.2324        -0.0182       1.1579
   15       0.0703       -0.4816       0.5519        -1.0348       1.1051
   16       1.0767        1.4539      -0.3772        -0.1943       1.2710
   17      26.7087       -0.2447      26.9534         0.4637      26.2450
   24      -0.1568       -0.4754       0.3186        -1.2877       1.1309
   30      -0.1349       -1.6892       1.5543        -1.0537       0.9188
 Sum       29.9454        1.0540      28.8914        -3.0000      32.9454

 Contributions to Isotropic shielding for atom   20 (    32.8145 ppm):
                         Standard Origin              Atomic Origin
 NLMO      Total    Paramagnetic  Diamagnetic   Paramagnetic  Diamagnetic
    4      -0.0563       -1.1486       1.0923        -0.9551       0.8988
    5       1.3643        0.3640       1.0003         0.5331       0.8312
   13       1.3642        0.0027       1.3615         0.4489       0.9153
   18      26.4419        0.2346      26.2073         0.4073      26.0346
   19       1.9711        1.8310       0.1402         0.1883       1.7828
 Sum       31.0852        1.2836      29.8016         0.6225      30.4627

 Contributions to Isotropic shielding for atom   21 (    32.5492 ppm):
                         Standard Origin              Atomic Origin
 NLMO      Total    Paramagnetic  Diamagnetic   Paramagnetic  Diamagnetic
    3      -0.0835       -1.3029       1.2195        -0.9655       0.8820
    5       1.0275        1.3427      -0.3153         0.0854       0.9421
   13       1.1451        1.1291       0.0160         0.1417       1.0034
   15       0.1833        0.0802       0.1031        -0.8572       1.0405
   18       2.0784        1.3825       0.6959         0.2971       1.7813
   19      26.4682       -0.0730      26.5412         0.4674      26.0008
 Sum       30.8189        2.5585      28.2604        -0.8311      31.6500

 Contributions to Isotropic shielding for atom   22 (    32.4314 ppm):
                         Standard Origin              Atomic Origin
 NLMO      Total    Paramagnetic  Diamagnetic   Paramagnetic  Diamagnetic
    4      -0.0534       -1.2687       1.2153        -0.9557       0.9024
    6       1.2190        0.5990       0.6200         0.3561       0.8629
    9       1.3701        0.1117       1.2584         0.5540       0.8161
   10       0.1216       -0.4981       0.6197        -1.4206       1.5422
   20      26.1627        0.2133      25.9494         0.4019      25.7608
   21       2.0186        1.4397       0.5789         0.1406       1.8780
   26      -0.2726       -0.9771       0.7046        -1.1113       0.8387
   27      -0.2072       -0.7352       0.5280        -1.0848       0.8775
 Sum       30.3587       -1.1156      31.4743        -3.1198      33.4785

 Contributions to Isotropic shielding for atom   23 (    32.0841 ppm):
                         Standard Origin              Atomic Origin
 NLMO      Total    Paramagnetic  Diamagnetic   Paramagnetic  Diamagnetic
    2      -0.0909       -1.3905       1.2995        -0.9716       0.8807
    6       1.0167        1.3878      -0.3711         0.0562       0.9605
    9       1.1798        0.9323       0.2475         0.2430       0.9368
   10       0.0688       -0.0798       0.1486        -1.4452       1.5140
   20       2.0769        1.1759       0.9009         0.1880       1.8889
   21      26.2625       -0.0119      26.2743         0.4291      25.8334
 Sum       30.5137        2.0139      28.4998        -1.5005      32.0142

 Contributions to Isotropic shielding for atom   24 (    34.9675 ppm):
                         Standard Origin              Atomic Origin
 NLMO      Total    Paramagnetic  Diamagnetic   Paramagnetic  Diamagnetic
    8      -0.1109        0.1284      -0.2393        -1.0142       0.9033
   10       1.4732        2.0585      -0.5853         0.7423       0.7309
   11       0.1019        0.2584      -0.1565        -0.9282       1.0301
   22      23.0006       -0.5305      23.5311        -0.1626      23.1632
   29      -0.3587       -1.1815       0.8228        -0.7838       0.4251
   43       4.0979        0.9683       3.1297         2.1740       1.9239
   44       5.6571        2.6009       3.0561         2.4798       3.1773
 Sum       33.8611        4.3025      29.5586         2.5073      31.3538

 Contributions to Isotropic shielding for atom   25 (    32.5532 ppm):
                         Standard Origin              Atomic Origin
 NLMO      Total    Paramagnetic  Diamagnetic   Paramagnetic  Diamagnetic
   12      -0.2250        0.0699      -0.2949        -1.3175       1.0926
   14      -0.2301       -0.9079       0.6778        -1.0127       0.7826
   16       1.5886        0.3611       1.2275         0.5386       1.0500
   23       1.0940        1.1551      -0.0611         0.0137       1.0803
   24       0.8007        2.1934      -1.3928        -0.2571       1.0577
   25      26.5751       -0.1289      26.7040         0.4876      26.0875
 Sum       29.6032        2.7427      26.8606        -1.5474      31.1506

 Contributions to Isotropic shielding for atom   26 (    32.2558 ppm):
                         Standard Origin              Atomic Origin
 NLMO      Total    Paramagnetic  Diamagnetic   Paramagnetic  Diamagnetic
   10       0.1221       -0.4926       0.6147        -1.0525       1.1746
   23       1.3435       -0.1771       1.5207         0.4258       0.9177
   24      -0.1000       -0.0807      -0.0193        -1.0101       0.9102
   26      26.0458        0.2719      25.7740         0.3973      25.6485
   27       2.1524        0.2542       1.8983         0.3733       1.7792
   28       1.9839        1.7679       0.2161         0.1290       1.8549
   43      -0.4258        0.2443      -0.6701         0.6366      -1.0624
 Sum       31.1220        1.7877      29.3343        -0.1007      31.2227

 Contributions to Isotropic shielding for atom   27 (    32.6591 ppm):
                         Standard Origin              Atomic Origin
 NLMO      Total    Paramagnetic  Diamagnetic   Paramagnetic  Diamagnetic
   23       1.4447       -0.4181       1.8628         0.4515       0.9933
   26       2.1867        0.3259       1.8607         0.3562       1.8304
   27      26.3986        0.3035      26.0950         0.3769      26.0216
   28       2.0025        1.5604       0.4422         0.1248       1.8777
 Sum       32.0325        1.7717      30.2608         1.3094      30.7231

 Contributions to Isotropic shielding for atom   28 (    32.5242 ppm):
                         Standard Origin              Atomic Origin
 NLMO      Total    Paramagnetic  Diamagnetic   Paramagnetic  Diamagnetic
   23       1.1263        1.0152       0.1110         0.1230       1.0033
   24      -0.0910        0.2974      -0.3884        -1.0990       1.0080
   26       2.0417        1.4652       0.5765         0.1463       1.8954
   27       2.0458        1.2159       0.8299         0.1734       1.8724
   28      26.3743        0.0081      26.3662         0.4134      25.9608
   31      -0.1105       -1.1903       1.0797        -0.9986       0.8881
 Sum       31.3866        2.8115      28.5750        -1.2414      32.6280

 Contributions to Isotropic shielding for atom   29 (    32.4125 ppm):
                         Standard Origin              Atomic Origin
 NLMO      Total    Paramagnetic  Diamagnetic   Paramagnetic  Diamagnetic
   22      -0.1926       -0.3812       0.1885        -1.2058       1.0131
   23      -0.1336        0.3018      -0.4353        -1.0467       0.9132
   24       1.6123       -1.1777       2.7900         0.6945       0.9178
   29      26.2584        0.3045      25.9539         0.4258      25.8326
   30       1.9100        1.1283       0.7817         0.1096       1.8004
   31       1.8794        1.7940       0.0854         0.0244       1.8550
 Sum       31.3339        1.9697      29.3641        -0.9982      32.3321

 Contributions to Isotropic shielding for atom   30 (    32.6907 ppm):
                         Standard Origin              Atomic Origin
 NLMO      Total    Paramagnetic  Diamagnetic   Paramagnetic  Diamagnetic
   16      -0.0804        0.3047      -0.3851        -1.0642       0.9838
   24       1.5204       -0.5962       2.1166         0.5363       0.9841
   29       2.0024        1.0227       0.9797         0.1584       1.8439
   30      26.5144        0.2175      26.2969         0.4580      26.0563
   31       1.8710        2.2605      -0.3895         0.0198       1.8512
 Sum       31.8277        3.2091      28.6186         0.1084      31.7193

 Contributions to Isotropic shielding for atom   31 (    32.4141 ppm):
                         Standard Origin              Atomic Origin
 NLMO      Total    Paramagnetic  Diamagnetic   Paramagnetic  Diamagnetic
   23      -0.1431        0.6679      -0.8110        -1.1245       0.9815
   24       1.3664       -0.0134       1.3798         0.3378       1.0287
   28      -0.1294       -0.3412       0.2118        -1.0037       0.8744
   29       1.9547        1.4988       0.4559         0.0823       1.8724
   30       1.8297        2.0433      -0.2136        -0.0146       1.8443
   31      26.4001        0.0740      26.3261         0.4711      25.9290
 Sum       31.2786        3.9295      27.3491        -1.2516      32.5302
 
 1\1\GINC-COMPUTE-10-4\SP\RHF\STO-3G\C10H20O1\YTSAI.IQUIR\03-Aug-2021\0
 \\# rhf/STO-3G nmr pop=nbo\\comment\\0,1\C,0,-0.999636053,0.487125213,
 -3.198415363\C,0,-1.24147025,0.085247486,-1.744395056\C,0,-0.410211692
 ,-1.366124939,0.166429891\C,0,-1.355347385,0.931096912,0.639972095\C,0
 ,-0.394974262,-0.16863746,1.142482633\C,0,-1.177110023,1.309712286,-0.
 826841358\C,0,-0.242439112,-0.988576437,-1.306394988\O,0,0.563268407,-
 2.343956037,0.504146108\C,0,0.987716528,0.406012078,1.59541815\C,0,2.0
 50713331,0.566140516,0.510263349\C,0,1.586131791,-0.406943532,2.754919
 829\H,0,-1.081376181,-0.381610896,-3.860106262\H,0,-1.737887736,1.2272
 58537,-3.524612091\H,0,-0.002969206,0.921597652,-3.331264804\H,0,-2.25
 2073836,-0.339917884,-1.678666565\H,0,-1.387675065,-1.858851758,0.2597
 33096\H,0,-1.276138564,1.828716059,1.264374847\H,0,-2.384267413,0.5682
 93883,0.770742893\H,0,-0.855594071,-0.539492495,2.070831767\H,0,-0.232
 404851,1.844444054,-0.964858773\H,0,-1.968063153,2.016784858,-1.106936
 407\H,0,0.783778555,-0.666596503,-1.510753991\H,0,-0.376192406,-1.8900
 6876,-1.919394647\H,0,0.343669007,-2.677643206,1.390679592\H,0,0.80373
 2788,1.407528819,2.007778401\H,0,2.380007515,-0.399292193,0.115170953\
 H,0,1.701922744,1.184870772,-0.317683365\H,0,2.938370123,1.061439923,0
 .921014751\H,0,1.905747252,-1.403702077,2.439928109\H,0,0.865557369,-0
 .518270907,3.571817541\H,0,2.465215852,0.103416036,3.164619666\\Versio
 n=EM64L-G09RevC.01\State=1-A\HF=-459.612413\RMSD=9.008e-09\Dipole=-0.4
 198171,0.190859,0.2912264\Quadrupole=-0.2660083,-0.7630052,1.0290135,1
 .846009,-0.0593627,-1.4494055\PG=C01 [X(C10H20O1)]\\@


 TO SEE A WORLD IN A GRAIN OF SAND
 AND A HEAVEN IN A WILD FLOWER
 HOLD INFINITY IN THE PALM OF YOUR HAND
 AND ETERNITY IN AN HOUR

                       -- WILLIAM BLAKE
 Job cpu time:  0 days  0 hours  0 minutes 28.9 seconds.
 File lengths (MBytes):  RWF=      5 Int=      0 D2E=      0 Chk=      1 Scr=      1
 Normal termination of Gaussian 09 at Tue Aug  3 16:34:29 2021.
