 Entering Gaussian System, Link 0=g09
 Input=/home/ytsai.iquir/menthol/02_menthol_M0022_MMFF_NMR_rhf_STO-3G_nbo.gjc
 Output=/home/ytsai.iquir/menthol/02_menthol_M0022_MMFF_NMR_rhf_STO-3G_nbo.log
 Initial command:
 /share/apps/Gaussian09/EM64T.SSE4.2-enabled/g09/l1.exe /tmp/Gau-30096.inp -scrdir=/tmp/
 Entering Link 1 = /share/apps/Gaussian09/EM64T.SSE4.2-enabled/g09/l1.exe PID=     30097.
  
 Copyright (c) 1988,1990,1992,1993,1995,1998,2003,2009,2011,
            Gaussian, Inc.  All Rights Reserved.
  
 This is part of the Gaussian(R) 09 program.  It is based on
 the Gaussian(R) 03 system (copyright 2003, Gaussian, Inc.),
 the Gaussian(R) 98 system (copyright 1998, Gaussian, Inc.),
 the Gaussian(R) 94 system (copyright 1995, Gaussian, Inc.),
 the Gaussian 92(TM) system (copyright 1992, Gaussian, Inc.),
 the Gaussian 90(TM) system (copyright 1990, Gaussian, Inc.),
 the Gaussian 88(TM) system (copyright 1988, Gaussian, Inc.),
 the Gaussian 86(TM) system (copyright 1986, Carnegie Mellon
 University), and the Gaussian 82(TM) system (copyright 1983,
 Carnegie Mellon University). Gaussian is a federally registered
 trademark of Gaussian, Inc.
  
 This software contains proprietary and confidential information,
 including trade secrets, belonging to Gaussian, Inc.
  
 This software is provided under written license and may be
 used, copied, transmitted, or stored only in accord with that
 written license.
  
 The following legend is applicable only to US Government
 contracts under FAR:
  
                    RESTRICTED RIGHTS LEGEND
  
 Use, reproduction and disclosure by the US Government is
 subject to restrictions as set forth in subparagraphs (a)
 and (c) of the Commercial Computer Software - Restricted
 Rights clause in FAR 52.227-19.
  
 Gaussian, Inc.
 340 Quinnipiac St., Bldg. 40, Wallingford CT 06492
  
  
 ---------------------------------------------------------------
 Warning -- This program may not be used in any manner that
 competes with the business of Gaussian, Inc. or will provide
 assistance to any competitor of Gaussian, Inc.  The licensee
 of this program is prohibited from giving any competitor of
 Gaussian, Inc. access to this program.  By using this program,
 the user acknowledges that Gaussian, Inc. is engaged in the
 business of creating and licensing software in the field of
 computational chemistry and represents and warrants to the
 licensee that it is not a competitor of Gaussian, Inc. and that
 it will not use this program in any manner prohibited above.
 ---------------------------------------------------------------
  

 Cite this work as:
 Gaussian 09, Revision C.01,
 M. J. Frisch, G. W. Trucks, H. B. Schlegel, G. E. Scuseria, 
 M. A. Robb, J. R. Cheeseman, G. Scalmani, V. Barone, B. Mennucci, 
 G. A. Petersson, H. Nakatsuji, M. Caricato, X. Li, H. P. Hratchian, 
 A. F. Izmaylov, J. Bloino, G. Zheng, J. L. Sonnenberg, M. Hada, 
 M. Ehara, K. Toyota, R. Fukuda, J. Hasegawa, M. Ishida, T. Nakajima, 
 Y. Honda, O. Kitao, H. Nakai, T. Vreven, J. A. Montgomery, Jr., 
 J. E. Peralta, F. Ogliaro, M. Bearpark, J. J. Heyd, E. Brothers, 
 K. N. Kudin, V. N. Staroverov, T. Keith, R. Kobayashi, J. Normand, 
 K. Raghavachari, A. Rendell, J. C. Burant, S. S. Iyengar, J. Tomasi, 
 M. Cossi, N. Rega, J. M. Millam, M. Klene, J. E. Knox, J. B. Cross, 
 V. Bakken, C. Adamo, J. Jaramillo, R. Gomperts, R. E. Stratmann, 
 O. Yazyev, A. J. Austin, R. Cammi, C. Pomelli, J. W. Ochterski, 
 R. L. Martin, K. Morokuma, V. G. Zakrzewski, G. A. Voth, 
 P. Salvador, J. J. Dannenberg, S. Dapprich, A. D. Daniels, 
 O. Farkas, J. B. Foresman, J. V. Ortiz, J. Cioslowski, 
 and D. J. Fox, Gaussian, Inc., Wallingford CT, 2010.
 
 ******************************************
 Gaussian 09:  EM64L-G09RevC.01 23-Sep-2011
                 3-Aug-2021 
 ******************************************
 %nprocshared=4
 Will use up to    4 processors via shared memory.
 ------------------------
 # rhf/STO-3G nmr pop=nbo
 ------------------------
 1/38=1/1;
 2/12=2,17=6,18=5,40=1/2;
 3/6=3,11=1,16=1,25=1,30=1,116=1/1,2,8,3;
 4//1;
 5/5=2,38=5/2;
 8/6=1,10=90,11=11/1;
 10/13=100,45=16/2;
 6/7=2,8=2,9=2,10=2,28=1,64=1/1,7;
 99/9=1/99;
 -------
 comment
 -------
 Charge =  0 Multiplicity = 1
 Symbolic Z-Matrix:
 6                     2.21552   1.20565  -1.7453 
 6                     0.75784   0.92892  -2.12251 
 6                     0.13842  -1.02342  -0.5384 
 6                    -0.38955   1.37369   0.11399 
 6                    -0.84855  -0.09425   0.20204 
 6                    -0.21027   1.82061  -1.33647 
 6                     0.37936  -0.55503  -1.98074 
 8                     1.39112  -1.10424   0.12665 
 6                    -1.21374  -0.49673   1.66287 
 6                    -0.15208  -0.20121   2.72613 
 6                    -1.65773  -1.95921   1.76387 
 1                     2.47797   2.2431   -1.9801 
 1                     2.41381   1.05224  -0.68163 
 1                     2.89202   0.55814  -2.31303 
 1                     0.66174   1.18999  -3.1851 
 1                    -0.26838  -2.03993  -0.59228 
 1                     0.55251   1.51917   0.6534 
 1                    -1.13279   2.02284   0.59263 
 1                    -1.79336  -0.15659  -0.36025 
 1                     0.12885   2.86309  -1.36052 
 1                    -1.18933   1.80257  -1.83275 
 1                     1.15699  -1.17339  -2.44608 
 1                    -0.5433   -0.72428  -2.55165 
 1                     1.31571  -1.79048   0.81039 
 1                    -2.089     0.11096   1.93479 
 1                     0.76618  -0.77144   2.57269 
 1                     0.1028    0.86188   2.75751 
 1                    -0.53121  -0.46318   3.72081 
 1                    -0.81949  -2.64869   1.62253 
 1                    -2.42395  -2.18813   1.01589 
 1                    -2.08813  -2.16264   2.75063 
 
                          Input orientation:                          
 ---------------------------------------------------------------------
 Center     Atomic      Atomic             Coordinates (Angstroms)
 Number     Number       Type             X           Y           Z
 ---------------------------------------------------------------------
      1          6           0        2.215524    1.205649   -1.745303
      2          6           0        0.757841    0.928922   -2.122506
      3          6           0        0.138420   -1.023419   -0.538398
      4          6           0       -0.389546    1.373686    0.113989
      5          6           0       -0.848554   -0.094249    0.202043
      6          6           0       -0.210269    1.820610   -1.336472
      7          6           0        0.379360   -0.555031   -1.980742
      8          8           0        1.391118   -1.104239    0.126649
      9          6           0       -1.213743   -0.496728    1.662874
     10          6           0       -0.152078   -0.201213    2.726133
     11          6           0       -1.657732   -1.959210    1.763869
     12          1           0        2.477969    2.243104   -1.980103
     13          1           0        2.413809    1.052240   -0.681630
     14          1           0        2.892023    0.558140   -2.313035
     15          1           0        0.661742    1.189990   -3.185102
     16          1           0       -0.268378   -2.039932   -0.592282
     17          1           0        0.552513    1.519165    0.653400
     18          1           0       -1.132788    2.022841    0.592634
     19          1           0       -1.793358   -0.156594   -0.360253
     20          1           0        0.128852    2.863091   -1.360518
     21          1           0       -1.189327    1.802572   -1.832755
     22          1           0        1.156988   -1.173391   -2.446082
     23          1           0       -0.543299   -0.724276   -2.551653
     24          1           0        1.315711   -1.790479    0.810395
     25          1           0       -2.088997    0.110958    1.934788
     26          1           0        0.766182   -0.771444    2.572691
     27          1           0        0.102798    0.861880    2.757512
     28          1           0       -0.531206   -0.463182    3.720809
     29          1           0       -0.819493   -2.648692    1.622528
     30          1           0       -2.423953   -2.188132    1.015889
     31          1           0       -2.088127   -2.162637    2.750630
 ---------------------------------------------------------------------
                    Distance matrix (angstroms):
                    1          2          3          4          5
     1  C    0.000000
     2  C    1.530915   0.000000
     3  C    3.277152   2.589347   0.000000
     4  C    3.204933   2.552690   2.539778   0.000000
     5  C    3.856224   3.005148   1.544580   1.540544   0.000000
     6  C    2.535704   1.533035   2.974392   1.528306   2.537937
     7  C    2.554785   1.538006   1.535512   2.949419   2.546497
     8  O    3.085357   3.097335   1.420589   3.051400   2.458027
     9  C    5.125781   4.499858   2.636540   2.564526   1.558646
    10  C    5.251527   5.061073   3.378990   3.059411   2.620601
    11  C    6.110052   5.411119   3.066317   3.929198   2.563620
    12  H    1.095592   2.169376   4.268745   3.655647   4.614189
    13  H    1.092818   2.198536   3.083224   2.931747   3.569079
    14  H    1.095097   2.174514   3.637718   4.162242   4.554464
    15  H    2.118374   1.098409   3.489712   3.467413   3.924668
    16  H    4.246531   3.494110   1.096214   3.488021   2.180192
    17  H    2.935588   2.845383   2.838413   1.095264   2.183991
    18  H    4.164726   3.484698   3.489255   1.096772   2.171502
    19  H    4.454796   3.285194   2.124827   2.130106   1.101235
    20  H    2.692466   2.171926   3.972523   2.158990   3.484649
    21  H    3.457886   2.153760   3.380014   2.147884   2.802581
    22  H    2.696557   2.164195   2.167772   3.928529   3.492752
    23  H    3.462069   2.147137   2.146491   3.395694   2.841295
    24  H    4.039559   4.038350   1.947726   3.661260   2.816262
    25  H    5.768043   5.023464   3.516369   2.792476   2.140844
    26  H    4.965335   4.993615   3.183779   3.461576   2.947191
    27  H    4.985693   4.924242   3.797189   2.737255   2.889581
    28  H    6.340970   6.143609   4.347771   4.050099   3.552258
    29  H    5.950593   5.414110   2.868573   4.317415   2.922978
    30  H    6.377043   5.448795   3.215294   4.199855   2.743824
    31  H    7.076734   6.434650   4.131952   4.726799   3.508570
                    6          7          8          9         10
     6  C    0.000000
     7  C    2.531091   0.000000
     8  O    3.641416   2.401329   0.000000
     9  C    3.920853   3.977099   3.084536   0.000000
    10  C    4.538272   4.749978   3.155033   1.531333   0.000000
    11  C    5.098461   4.488160   3.564682   1.531725   2.506691
    12  H    2.796316   3.497674   4.101751   5.865722   5.919501
    13  H    2.811582   2.899999   2.519844   4.588587   4.446096
    14  H    3.488799   2.768219   3.311838   5.811876   5.936024
    15  H    2.139046   2.139000   4.094285   5.464918   6.127026
    16  H    3.932045   2.133616   2.036249   2.891526   3.795562
    17  H    2.152277   3.357228   2.804100   2.864004   2.784308
    18  H    2.147880   3.943892   4.045476   2.738648   3.234196
    19  H    2.714500   2.739607   3.357975   2.131828   3.495937
    20  H    1.096516   3.482957   4.420938   4.715066   5.115623
    21  H    1.097805   2.835661   4.352874   4.184112   5.086698
    22  H    3.473424   1.097094   2.584288   4.791843   5.423154
    23  H    2.839722   1.098128   3.325605   4.273583   5.318052
    24  H    4.469632   3.192731   0.971658   2.966252   2.889675
    25  H    4.141699   4.676292   4.105761   1.099677   2.115499
    26  H    4.791008   4.574956   2.546453   2.196210   1.091746
    27  H    4.216383   4.953300   3.528007   2.185710   1.093669
    28  H    5.558309   5.774535   4.126048   2.168428   1.096242
    29  H    5.394580   4.336383   3.083795   2.188153   2.766503
    30  H    5.148205   4.416490   4.064522   2.178084   3.469034
    31  H    6.008078   5.573039   4.484488   2.173249   2.756096
                   11         12         13         14         15
    11  C    0.000000
    12  H    6.984325   0.000000
    13  H    5.623766   1.763039   0.000000
    14  H    6.607455   1.766746   1.770397   0.000000
    15  H    6.307910   2.420692   3.058772   2.476669   0.000000
    16  H    2.736470   5.273791   4.094342   4.438366   4.245024
    17  H    4.268187   3.341678   2.337680   3.898283   3.854139
    18  H    4.183788   4.439038   3.891550   5.175651   4.264419
    19  H    2.789214   5.160107   4.389171   5.126109   3.977509
    20  H    6.017330   2.507313   2.993509   3.722257   2.532261
    21  H    5.225524   3.696598   3.856251   4.293797   2.372879
    22  H    5.124827   3.692501   3.105853   2.454841   2.525270
    23  H    4.625014   4.273181   3.923963   3.674638   2.348999
    24  H    3.127131   5.040587   3.393082   4.213855   5.027411
    25  H    2.121508   6.381975   5.292156   6.561595   5.911358
    26  H    2.817862   5.722381   4.078124   5.491567   6.083610
    27  H    3.470640   5.476698   4.147855   5.795039   5.977854
    28  H    2.708648   6.991389   5.509182   7.012051   7.200536
    29  H    1.094536   6.912444   5.427733   6.288702   6.327941
    30  H    1.094977   7.255388   6.065107   6.847141   6.211404
    31  H    1.095591   7.914520   6.510243   7.605604   7.350836
                   16         17         18         19         20
    16  H    0.000000
    17  H    3.859114   0.000000
    18  H    4.319416   1.760006   0.000000
    19  H    2.434412   3.055941   2.468660   0.000000
    20  H    4.978716   2.457945   2.472359   3.716708   0.000000
    21  H    4.141467   3.048818   2.436027   2.524172   1.756504
    22  H    2.493820   4.149945   4.969182   3.753546   4.304498
    23  H    2.376061   4.062782   4.216716   2.585952   3.839244
    24  H    2.130509   3.400127   4.536956   3.702203   5.270409
    25  H    3.785111   3.256160   2.524086   2.329421   4.832405
    26  H    3.563206   2.996034   3.915959   3.940996   5.393159
    27  H    4.447404   2.249790   2.749764   3.788557   4.578614
    28  H    4.599780   3.809612   4.040754   4.282767   6.108982
    29  H    2.362139   4.493623   4.793960   3.330223   6.338586
    30  H    2.693451   4.768102   4.424765   2.533488   6.138320
    31  H    3.808097   4.992696   4.804981   3.713312   6.861084
                   21         22         23         24         25
    21  H    0.000000
    22  H    3.838974   0.000000
    23  H    2.705388   1.761768   0.000000
    24  H    5.115805   3.318227   3.986988   0.000000
    25  H    4.226741   5.601607   4.818190   4.058542   0.000000
    26  H    5.464204   5.049988   5.289222   2.108578   3.055749
    27  H    4.860560   5.686039   5.578582   3.506769   2.458603
    28  H    6.033973   6.433114   6.277906   3.693688   2.438487
    29  H    5.647079   4.757792   4.604720   2.440325   3.053656
    30  H    5.056163   5.083118   4.290348   3.766357   2.498477
    31  H    6.126837   6.206061   5.706976   3.935623   2.415539
                   26         27         28         29         30
    26  H    0.000000
    27  H    1.772564   0.000000
    28  H    1.759664   1.756614   0.000000
    29  H    2.634623   3.803015   3.043411   0.000000
    30  H    3.821990   4.326696   3.724854   1.776069   0.000000
    31  H    3.180277   3.734689   2.500679   1.765870   1.767132
                   31
    31  H    0.000000
 Stoichiometry    C10H20O
 Framework group  C1[X(C10H20O)]
 Deg. of freedom    87
 Full point group                 C1      NOp   1
 Largest Abelian subgroup         C1      NOp   1
 Largest concise Abelian subgroup C1      NOp   1
                         Standard orientation:                         
 ---------------------------------------------------------------------
 Center     Atomic      Atomic             Coordinates (Angstroms)
 Number     Number       Type             X           Y           Z
 ---------------------------------------------------------------------
      1          6           0        2.799952   -0.134883    1.084394
      2          6           0        2.350956    0.033100   -0.369526
      3          6           0       -0.002023   -1.047550   -0.349379
      4          6           0        0.259605    1.460224   -0.044265
      5          6           0       -0.628391    0.338856   -0.616342
      6          6           0        1.680676    1.392013   -0.602498
      7          6           0        1.448396   -1.116340   -0.848729
      8          8           0       -0.021876   -1.381436    1.031272
      9          6           0       -2.119683    0.515868   -0.199096
     10          6           0       -2.380921    0.696421    1.298948
     11          6           0       -3.009166   -0.602394   -0.750903
     12          1           0        3.538051    0.631779    1.344703
     13          1           0        1.974435   -0.046897    1.795051
     14          1           0        3.272745   -1.111375    1.233282
     15          1           0        3.265341    0.005023   -0.977485
     16          1           0       -0.564092   -1.824276   -0.880849
     17          1           0        0.300325    1.404036    1.048799
     18          1           0       -0.170531    2.437225   -0.295982
     19          1           0       -0.617044    0.463823   -1.710405
     20          1           0        2.286366    2.194378   -0.164664
     21          1           0        1.643266    1.587053   -1.682190
     22          1           0        1.895843   -2.074433   -0.556384
     23          1           0        1.431163   -1.097020   -1.946551
     24          1           0       -0.888238   -1.776746    1.224321
     25          1           0       -2.459991    1.445502   -0.677908
     26          1           0       -2.100492   -0.182218    1.883126
     27          1           0       -1.847243    1.562602    1.700233
     28          1           0       -3.447879    0.874232    1.477075
     29          1           0       -2.823363   -1.555522   -0.245895
     30          1           0       -2.842660   -0.741269   -1.824198
     31          1           0       -4.067403   -0.356284   -0.609889
 ---------------------------------------------------------------------
 Rotational constants (GHZ):      1.8478957      0.7423523      0.6938984
 Standard basis: STO-3G (5D, 7F)
 There are    75 symmetry adapted basis functions of A   symmetry.
 Integral buffers will be    131072 words long.
 Raffenetti 1 integral format.
 Two-electron integral symmetry is turned on.
    75 basis functions,   225 primitive gaussians,    75 cartesian basis functions
    44 alpha electrons       44 beta electrons
       nuclear repulsion energy       704.9200523770 Hartrees.
 NAtoms=   31 NActive=   31 NUniq=   31 SFac= 1.00D+00 NAtFMM=   60 NAOKFM=F Big=F
 One-electron integrals computed using PRISM.
 NBasis=    75 RedAO= T  NBF=    75
 NBsUse=    75 1.00D-06 NBFU=    75
 Harris functional with IExCor=  205 diagonalized for initial guess.
 ExpMin= 1.69D-01 ExpMax= 1.31D+02 ExpMxC= 1.31D+02 IAcc=1 IRadAn=         1 AccDes= 0.00D+00
 HarFok:  IExCor=  205 AccDes= 0.00D+00 IRadAn=         1 IDoV= 1
 ScaDFX=  1.000000  1.000000  1.000000  1.000000
 FoFCou: FMM=F IPFlag=           0 FMFlag=      100000 FMFlg1=           0
         NFxFlg=           0 DoJE=T BraDBF=F KetDBF=T FulRan=T
         Omega=  0.000000  0.000000  1.000000  0.000000  0.000000 ICntrl=     500 IOpCl=  0
         NMat0=    1 NMatS0=    1 NMatT0=    0 NMatD0=    1 NMtDS0=    0 NMtDT0=    0
         I1Cent=           4 NGrid=           0.
 Petite list used in FoFCou.
 Initial guess orbital symmetries:
       Occupied  (A) (A) (A) (A) (A) (A) (A) (A) (A) (A) (A) (A)
                 (A) (A) (A) (A) (A) (A) (A) (A) (A) (A) (A) (A)
                 (A) (A) (A) (A) (A) (A) (A) (A) (A) (A) (A) (A)
                 (A) (A) (A) (A) (A) (A) (A) (A)
       Virtual   (A) (A) (A) (A) (A) (A) (A) (A) (A) (A) (A) (A)
                 (A) (A) (A) (A) (A) (A) (A) (A) (A) (A) (A) (A)
                 (A) (A) (A) (A) (A) (A) (A)
 The electronic state of the initial guess is 1-A.
 Requested convergence on RMS density matrix=1.00D-08 within 128 cycles.
 Requested convergence on MAX density matrix=1.00D-06.
 Requested convergence on             energy=1.00D-06.
 No special actions if energy rises.
 Keep R1 ints in memory in canonical form, NReq=4898789.
 SCF Done:  E(RHF) =  -459.615575467     A.U. after   10 cycles
             Convg  =    0.7247D-08             -V/T =  2.0090
 Range of M.O.s used for correlation:     1    75
 NBasis=    75 NAE=    44 NBE=    44 NFC=     0 NFV=     0
 NROrb=     75 NOA=    44 NOB=    44 NVA=    31 NVB=    31
          Differentiating once with respect to magnetic field using GIAOs.
          Electric field/nuclear overlap derivatives assumed to be zero.
          Keep R3 ints in memory in canonical form, NReq=4863575.
 FoFCou: FMM=F IPFlag=           0 FMFlag=           0 FMFlg1=           0
         NFxFlg=           0 DoJE=F BraDBF=F KetDBF=T FulRan=T
         Omega=  0.000000  0.000000  1.000000  0.000000  0.000000 ICntrl=    6100 IOpCl=  0
         NMat0=    1 NMatS0=    1 NMatT0=    0 NMatD0=    1 NMtDS0=    0 NMtDT0=    0
         I1Cent=           7 NGrid=          31.
 Symmetry not used in FoFCou.
          There are     3 degrees of freedom in the 1st order CPHF.  IDoFFX=0.
      3 vectors produced by pass  0 Test12= 4.55D-14 3.33D-08 XBig12= 6.87D+00 4.15D-01.
 AX will form     3 AO Fock derivatives at one time.
      3 vectors produced by pass  1 Test12= 4.55D-14 3.33D-08 XBig12= 1.01D-02 1.91D-02.
      3 vectors produced by pass  2 Test12= 4.55D-14 3.33D-08 XBig12= 8.44D-05 2.78D-03.
      3 vectors produced by pass  3 Test12= 4.55D-14 3.33D-08 XBig12= 2.27D-06 5.09D-04.
      3 vectors produced by pass  4 Test12= 4.55D-14 3.33D-08 XBig12= 2.23D-08 3.46D-05.
      3 vectors produced by pass  5 Test12= 4.55D-14 3.33D-08 XBig12= 3.20D-10 2.25D-06.
      3 vectors produced by pass  6 Test12= 4.55D-14 3.33D-08 XBig12= 3.06D-12 2.23D-07.
 Inverted reduced A of dimension    21 with in-core refinement.
 Calculating GIAO nuclear magnetic shielding tensors.
 SCF GIAO Magnetic shielding tensor (ppm):
      1  C    Isotropic =   222.0958   Anisotropy =    24.9579
   XX=   216.3212   YX=     0.6911   ZX=    10.5333
   XY=     0.0202   YY=   218.5802   ZY=    -1.9518
   XZ=    14.8059   YZ=    -2.3278   ZZ=   231.3861
   Eigenvalues:   208.9186   218.6345   238.7345
      2  C    Isotropic =   216.3435   Anisotropy =     3.9352
   XX=   215.6313   YX=     0.8146   ZX=     3.7794
   XY=     0.8442   YY=   217.4726   ZY=     0.0925
   XZ=     2.1551   YZ=    -0.1310   ZZ=   215.9266
   Eigenvalues:   212.7277   217.3359   218.9670
      3  C    Isotropic =   189.2786   Anisotropy =    38.6979
   XX=   180.0072   YX=    -4.2766   ZX=    -4.2167
   XY=    -6.3986   YY=   175.2452   ZY=    -9.0555
   XZ=    -4.5608   YZ=    -9.7014   ZZ=   212.5835
   Eigenvalues:   169.3409   183.4177   215.0772
      4  C    Isotropic =   219.4965   Anisotropy =    16.0172
   XX=   227.2928   YX=     4.6536   ZX=    -1.4501
   XY=     5.0361   YY=   221.8519   ZY=     3.3561
   XZ=     0.8039   YZ=     1.5757   ZZ=   209.3449
   Eigenvalues:   208.7878   219.5271   230.1747
      5  C    Isotropic =   210.4391   Anisotropy =    15.4920
   XX=   219.3235   YX=     3.8237   ZX=    -1.2713
   XY=     2.2701   YY=   207.5265   ZY=    -0.7894
   XZ=    -5.6873   YZ=     0.7944   ZZ=   204.4672
   Eigenvalues:   203.5639   206.9862   220.7671
      6  C    Isotropic =   216.5272   Anisotropy =    10.6142
   XX=   220.8096   YX=    -3.0332   ZX=     0.6416
   XY=    -3.6015   YY=   218.8964   ZY=    -4.9357
   XZ=    -0.2370   YZ=    -1.0728   ZZ=   209.8755
   Eigenvalues:   208.9128   217.0654   223.6033
      7  C    Isotropic =   215.2357   Anisotropy =    11.2937
   XX=   221.6094   YX=     2.6994   ZX=    -0.0446
   XY=     3.0080   YY=   215.2002   ZY=     2.7720
   XZ=    -0.0067   YZ=     2.7055   ZZ=   208.8974
   Eigenvalues:   207.7929   215.1493   222.7648
      8  O    Isotropic =   366.8149   Anisotropy =    86.8595
   XX=   410.8986   YX=    29.1903   ZX=   -31.7349
   XY=    24.1728   YY=   356.3071   ZY=     2.2174
   XZ=    -4.4655   YZ=    -0.0542   ZZ=   333.2391
   Eigenvalues:   327.0732   348.6503   424.7213
      9  C    Isotropic =   213.1556   Anisotropy =    17.2167
   XX=   224.3984   YX=     1.3341   ZX=    -0.3042
   XY=     0.7992   YY=   206.4630   ZY=     3.1378
   XZ=    -3.2867   YZ=     2.0549   ZZ=   208.6055
   Eigenvalues:   204.5454   210.2881   224.6334
     10  C    Isotropic =   223.3887   Anisotropy =    21.4768
   XX=   219.1442   YX=    -1.9428   ZX=    -4.9439
   XY=    -1.2790   YY=   215.2982   ZY=     2.7735
   XZ=    -3.4750   YZ=     6.0663   ZZ=   235.7237
   Eigenvalues:   214.2521   218.2074   237.7065
     11  C    Isotropic =   221.9567   Anisotropy =    24.0911
   XX=   224.1150   YX=     9.1296   ZX=     6.3916
   XY=    10.4995   YY=   222.1504   ZY=    10.2284
   XZ=     3.6064   YZ=     7.0866   ZZ=   219.6048
   Eigenvalues:   211.1119   216.7408   238.0175
     12  H    Isotropic =    32.6001   Anisotropy =    14.7887
   XX=    35.5776   YX=     5.1662   ZX=     5.6888
   XY=     5.4006   YY=    31.4586   ZY=     2.1791
   XZ=     5.9332   YZ=     2.6295   ZZ=    30.7640
   Eigenvalues:    26.5168    28.8242    42.4592
     13  H    Isotropic =    32.0318   Anisotropy =     7.3610
   XX=    34.0277   YX=    -0.1030   ZX=    -1.5544
   XY=    -0.0664   YY=    25.9185   ZY=    -0.1331
   XZ=    -1.4784   YZ=    -0.0158   ZZ=    36.1492
   Eigenvalues:    25.9167    33.2395    36.9391
     14  H    Isotropic =    32.4541   Anisotropy =    13.7200
   XX=    32.5591   YX=    -5.1431   ZX=     4.2509
   XY=    -5.4432   YY=    35.0511   ZY=    -3.0244
   XZ=     4.3993   YZ=    -3.5305   ZZ=    29.7522
   Eigenvalues:    26.5588    29.2027    41.6008
     15  H    Isotropic =    32.4037   Anisotropy =    15.4819
   XX=    39.0030   YX=    -0.2425   ZX=    -6.3295
   XY=    -0.2485   YY=    26.7382   ZY=     0.1361
   XZ=    -6.6031   YZ=     0.1698   ZZ=    31.4699
   Eigenvalues:    26.7329    27.7532    42.7250
     16  H    Isotropic =    31.9565   Anisotropy =     9.7864
   XX=    33.3788   YX=     2.7667   ZX=     1.8393
   XY=     2.7307   YY=    33.5445   ZY=     3.9638
   XZ=     1.7755   YZ=     5.1763   ZZ=    28.9463
   Eigenvalues:    26.1281    31.2606    38.4808
     17  H    Isotropic =    32.2641   Anisotropy =     8.1792
   XX=    31.9852   YX=     0.6160   ZX=    -0.6690
   XY=     0.4450   YY=    28.0055   ZY=     2.7070
   XZ=    -0.5832   YZ=     3.1301   ZZ=    36.8016
   Eigenvalues:    27.0291    32.0462    37.7169
     18  H    Isotropic =    32.6187   Anisotropy =    13.3974
   XX=    32.2405   YX=    -2.8688   ZX=    -0.2375
   XY=    -2.8993   YY=    40.4859   ZY=    -1.5763
   XZ=    -0.2242   YZ=    -1.9163   ZZ=    25.1296
   Eigenvalues:    24.8891    31.4166    41.5502
     19  H    Isotropic =    32.8291   Anisotropy =    10.2762
   XX=    32.3064   YX=     0.0851   ZX=     0.5309
   XY=     0.2045   YY=    26.8808   ZY=    -1.7735
   XZ=     0.7636   YZ=    -2.3176   ZZ=    39.3001
   Eigenvalues:    26.5420    32.2654    39.6799
     20  H    Isotropic =    32.3883   Anisotropy =    14.6155
   XX=    33.3133   YX=     6.0355   ZX=     1.8276
   XY=     6.1532   YY=    37.2822   ZY=     1.5581
   XZ=     2.0953   YZ=     1.9442   ZZ=    26.5693
   Eigenvalues:    26.0386    28.9943    42.1319
     21  H    Isotropic =    32.5584   Anisotropy =    13.4138
   XX=    29.3977   YX=     0.6341   ZX=    -1.9101
   XY=     0.7716   YY=    30.1831   ZY=    -5.6141
   XZ=    -2.3320   YZ=    -5.8397   ZZ=    38.0944
   Eigenvalues:    27.1106    29.0637    41.5009
     22  H    Isotropic =    32.0110   Anisotropy =    13.5589
   XX=    31.4800   YX=    -4.7816   ZX=     0.4165
   XY=    -5.0671   YY=    38.5165   ZY=     0.2513
   XZ=     0.1924   YZ=     0.0602   ZZ=    26.0366
   Eigenvalues:    25.9970    28.9859    41.0503
     23  H    Isotropic =    32.5144   Anisotropy =    13.3061
   XX=    29.5203   YX=    -0.0421   ZX=    -1.4418
   XY=    -0.0662   YY=    28.0480   ZY=     3.7625
   XZ=    -2.1648   YZ=     4.0062   ZZ=    39.9750
   Eigenvalues:    26.8093    29.3488    41.3852
     24  H    Isotropic =    34.9194   Anisotropy =    17.6423
   XX=    40.4453   YX=     6.0798   ZX=    -4.9541
   XY=     5.4890   YY=    31.4541   ZY=    -6.6745
   XZ=    -3.7585   YZ=    -5.8629   ZZ=    32.8587
   Eigenvalues:    25.6656    32.4116    46.6809
     25  H    Isotropic =    32.3976   Anisotropy =    12.6643
   XX=    31.9910   YX=    -4.2388   ZX=     2.2702
   XY=    -3.8146   YY=    35.9944   ZY=    -4.8018
   XZ=     2.1637   YZ=    -4.7370   ZZ=    29.2075
   Eigenvalues:    26.7430    29.6094    40.8405
     26  H    Isotropic =    32.9911   Anisotropy =     9.0519
   XX=    30.3360   YX=    -2.7989   ZX=    -1.1640
   XY=    -2.1504   YY=    32.9421   ZY=    -4.5359
   XZ=    -1.1250   YZ=    -4.3871   ZZ=    35.6954
   Eigenvalues:    27.2889    32.6588    39.0257
     27  H    Isotropic =    32.3370   Anisotropy =    10.9712
   XX=    31.1834   YX=     2.7580   ZX=    -0.8409
   XY=     2.9555   YY=    33.5014   ZY=     6.1305
   XZ=    -0.4502   YZ=     6.5903   ZZ=    32.3263
   Eigenvalues:    25.4779    31.8820    39.6511
     28  H    Isotropic =    32.6493   Anisotropy =    14.6701
   XX=    39.3128   YX=    -2.9391   ZX=    -4.8513
   XY=    -2.6282   YY=    27.6249   ZY=     2.3267
   XZ=    -4.9742   YZ=     2.3543   ZZ=    31.0102
   Eigenvalues:    26.4211    29.0974    42.4294
     29  H    Isotropic =    33.0451   Anisotropy =     9.4595
   XX=    32.1040   YX=     1.7132   ZX=     1.0843
   XY=     2.0144   YY=    38.4407   ZY=    -2.2598
   XZ=     0.9285   YZ=    -2.5387   ZZ=    28.5905
   Eigenvalues:    27.5818    32.2021    39.3514
     30  H    Isotropic =    32.5801   Anisotropy =    12.4622
   XX=    30.8752   YX=     1.6142   ZX=     2.1569
   XY=     1.5836   YY=    27.7668   ZY=     4.1104
   XZ=     2.0258   YZ=     3.5666   ZZ=    39.0983
   Eigenvalues:    26.3824    30.4697    40.8882
     31  H    Isotropic =    32.4807   Anisotropy =    14.5698
   XX=    42.1376   YX=    -0.0147   ZX=     0.9533
   XY=     0.3754   YY=    27.6003   ZY=     1.2632
   XZ=     0.7782   YZ=     1.3260   ZZ=    27.7043
   Eigenvalues:    26.3425    28.9058    42.1939
 End of Minotr Frequency-dependent properties file   721 does not exist.
 End of Minotr Frequency-dependent properties file   722 does not exist.

 **********************************************************************

            Population analysis using the SCF density.

 **********************************************************************

 Orbital symmetries:
       Occupied  (A) (A) (A) (A) (A) (A) (A) (A) (A) (A) (A) (A)
                 (A) (A) (A) (A) (A) (A) (A) (A) (A) (A) (A) (A)
                 (A) (A) (A) (A) (A) (A) (A) (A) (A) (A) (A) (A)
                 (A) (A) (A) (A) (A) (A) (A) (A)
       Virtual   (A) (A) (A) (A) (A) (A) (A) (A) (A) (A) (A) (A)
                 (A) (A) (A) (A) (A) (A) (A) (A) (A) (A) (A) (A)
                 (A) (A) (A) (A) (A) (A) (A)
 The electronic state is 1-A.
 Alpha  occ. eigenvalues --  -20.23720 -11.08539 -11.04954 -11.04082 -11.03965
 Alpha  occ. eigenvalues --  -11.03650 -11.03510 -11.03118 -11.03098 -11.03088
 Alpha  occ. eigenvalues --  -11.01819  -1.28029  -1.07608  -1.03627  -0.96336
 Alpha  occ. eigenvalues --   -0.94942  -0.89296  -0.87508  -0.79324  -0.78619
 Alpha  occ. eigenvalues --   -0.72504  -0.67691  -0.63930  -0.60713  -0.58964
 Alpha  occ. eigenvalues --   -0.57502  -0.55956  -0.54447  -0.53267  -0.52547
 Alpha  occ. eigenvalues --   -0.50669  -0.49750  -0.49397  -0.47522  -0.46387
 Alpha  occ. eigenvalues --   -0.45343  -0.44277  -0.43197  -0.41799  -0.40543
 Alpha  occ. eigenvalues --   -0.39455  -0.38971  -0.36017  -0.32577
 Alpha virt. eigenvalues --    0.52585   0.56457   0.57130   0.59390   0.61030
 Alpha virt. eigenvalues --    0.61293   0.62704   0.65603   0.65976   0.67470
 Alpha virt. eigenvalues --    0.68029   0.69178   0.70769   0.71012   0.72221
 Alpha virt. eigenvalues --    0.72823   0.73507   0.75431   0.76189   0.77073
 Alpha virt. eigenvalues --    0.77607   0.78585   0.78976   0.80096   0.81058
 Alpha virt. eigenvalues --    0.81777   0.82064   0.83353   0.84205   0.84465
 Alpha virt. eigenvalues --    0.85188
          Condensed to atoms (all electrons):
              1          2          3          4          5          6
     1  C    4.742547   0.364621  -0.000419  -0.001327   0.000064  -0.023785
     2  C    0.364621   4.741676  -0.019562  -0.021185  -0.003569   0.362930
     3  C   -0.000419  -0.019562   4.740522  -0.022171   0.354345  -0.003659
     4  C   -0.001327  -0.021185  -0.022171   4.754213   0.361997   0.363504
     5  C    0.000064  -0.003569   0.354345   0.361997   4.790426  -0.021564
     6  C   -0.023785   0.362930  -0.003659   0.363504  -0.021564   4.754464
     7  C   -0.022964   0.361449   0.358551  -0.004325  -0.023226  -0.023326
     8  O   -0.000653  -0.000063   0.266279  -0.000485  -0.018806   0.000044
     9  C    0.000000   0.000002  -0.018139  -0.021170   0.357905   0.000632
    10  C    0.000000   0.000000  -0.000327  -0.002832  -0.019032   0.000014
    11  C    0.000000   0.000000  -0.002478   0.000613  -0.022052  -0.000004
    12  H    0.381477  -0.020630  -0.000011   0.000031  -0.000001  -0.001989
    13  H    0.382922  -0.019458   0.000010  -0.000406   0.000033  -0.001937
    14  H    0.382505  -0.020227   0.000013   0.000003  -0.000001   0.001248
    15  H   -0.025819   0.382878   0.001185   0.001240   0.000013  -0.023550
    16  H   -0.000012   0.001159   0.377736   0.001168  -0.024837   0.000014
    17  H   -0.000422  -0.001472  -0.001755   0.382262  -0.021548  -0.022751
    18  H    0.000008   0.001223   0.001177   0.382513  -0.021349  -0.021984
    19  H    0.000000   0.000085  -0.023805  -0.024311   0.377843  -0.002576
    20  H   -0.003254  -0.021126   0.000002  -0.021599   0.001215   0.382663
    21  H    0.001313  -0.022717   0.000043  -0.023622  -0.002021   0.381010
    22  H   -0.003389  -0.021590  -0.021246   0.000005   0.001109   0.001202
    23  H    0.001298  -0.022668  -0.021787   0.000064  -0.000981  -0.001043
    24  H    0.000039  -0.000016  -0.041342   0.000027   0.000381  -0.000006
    25  H    0.000000  -0.000001   0.001080  -0.001663  -0.023828   0.000005
    26  H    0.000000   0.000000   0.000190   0.000002  -0.001263  -0.000002
    27  H    0.000000   0.000000   0.000010  -0.001060  -0.001447   0.000006
    28  H    0.000000   0.000000  -0.000009   0.000035   0.001071   0.000000
    29  H    0.000000   0.000000  -0.000555  -0.000004  -0.001227   0.000000
    30  H    0.000000   0.000000  -0.000164   0.000014  -0.002385   0.000000
    31  H    0.000000   0.000000   0.000028  -0.000013   0.001153   0.000000
              7          8          9         10         11         12
     1  C   -0.022964  -0.000653   0.000000   0.000000   0.000000   0.381477
     2  C    0.361449  -0.000063   0.000002   0.000000   0.000000  -0.020630
     3  C    0.358551   0.266279  -0.018139  -0.000327  -0.002478  -0.000011
     4  C   -0.004325  -0.000485  -0.021170  -0.002832   0.000613   0.000031
     5  C   -0.023226  -0.018806   0.357905  -0.019032  -0.022052  -0.000001
     6  C   -0.023326   0.000044   0.000632   0.000014  -0.000004  -0.001989
     7  C    4.764800  -0.019930   0.000535  -0.000005   0.000009   0.001233
     8  O   -0.019930   7.849073  -0.000283  -0.000624  -0.000033   0.000009
     9  C    0.000535  -0.000283   4.742823   0.364234   0.363592   0.000000
    10  C   -0.000005  -0.000624   0.364234   4.743096  -0.026161   0.000000
    11  C    0.000009  -0.000033   0.363592  -0.026161   4.744251   0.000000
    12  H    0.001233   0.000009   0.000000   0.000000   0.000000   0.638331
    13  H   -0.001222   0.000222   0.000001   0.000000   0.000000  -0.022225
    14  H   -0.002564   0.000010   0.000000   0.000000   0.000000  -0.021843
    15  H   -0.023689  -0.000008   0.000001   0.000000   0.000000  -0.003089
    16  H   -0.024425  -0.017179  -0.001362   0.000022  -0.000663   0.000001
    17  H    0.000101   0.000272  -0.001524  -0.000928  -0.000002   0.000043
    18  H    0.000016  -0.000006  -0.002192  -0.000105   0.000012  -0.000003
    19  H   -0.001600   0.000596  -0.024077   0.001146  -0.001693   0.000000
    20  H    0.001202  -0.000001  -0.000013   0.000000   0.000000   0.000182
    21  H   -0.001120   0.000000   0.000007  -0.000001   0.000000   0.000024
    22  H    0.381846  -0.000972  -0.000012   0.000000   0.000000   0.000043
    23  H    0.380210   0.000626   0.000004   0.000000   0.000001  -0.000037
    24  H    0.002674   0.259283   0.000102  -0.001126  -0.000138  -0.000001
    25  H   -0.000014  -0.000010   0.381746  -0.025783  -0.024709   0.000000
    26  H   -0.000003  -0.000727  -0.020350   0.382317  -0.001931   0.000000
    27  H    0.000000   0.000018  -0.019420   0.383433   0.001316   0.000000
    28  H    0.000000   0.000009  -0.020121   0.381780  -0.002706   0.000000
    29  H    0.000002  -0.000148  -0.020688  -0.002466   0.381672   0.000000
    30  H   -0.000002   0.000005  -0.020116   0.001316   0.382338   0.000000
    31  H    0.000000   0.000000  -0.019771  -0.002030   0.382816   0.000000
             13         14         15         16         17         18
     1  C    0.382922   0.382505  -0.025819  -0.000012  -0.000422   0.000008
     2  C   -0.019458  -0.020227   0.382878   0.001159  -0.001472   0.001223
     3  C    0.000010   0.000013   0.001185   0.377736  -0.001755   0.001177
     4  C   -0.000406   0.000003   0.001240   0.001168   0.382262   0.382513
     5  C    0.000033  -0.000001   0.000013  -0.024837  -0.021548  -0.021349
     6  C   -0.001937   0.001248  -0.023550   0.000014  -0.022751  -0.021984
     7  C   -0.001222  -0.002564  -0.023689  -0.024425   0.000101   0.000016
     8  O    0.000222   0.000010  -0.000008  -0.017179   0.000272  -0.000006
     9  C    0.000001   0.000000   0.000001  -0.001362  -0.001524  -0.002192
    10  C    0.000000   0.000000   0.000000   0.000022  -0.000928  -0.000105
    11  C    0.000000   0.000000   0.000000  -0.000663  -0.000002   0.000012
    12  H   -0.022225  -0.021843  -0.003089   0.000001   0.000043  -0.000003
    13  H    0.615727  -0.021335   0.001930   0.000002  -0.000495  -0.000005
    14  H   -0.021335   0.631202  -0.002108  -0.000003  -0.000006   0.000001
    15  H    0.001930  -0.002108   0.655280  -0.000031  -0.000004  -0.000031
    16  H    0.000002  -0.000003  -0.000031   0.663180   0.000006  -0.000031
    17  H   -0.000495  -0.000006  -0.000004   0.000006   0.635063  -0.023577
    18  H   -0.000005   0.000001  -0.000031  -0.000031  -0.023577   0.643737
    19  H   -0.000002   0.000000  -0.000018  -0.002274   0.001930  -0.002447
    20  H    0.000007   0.000039  -0.001195   0.000002  -0.002620  -0.001980
    21  H    0.000002  -0.000036  -0.003871  -0.000009   0.001979  -0.002910
    22  H    0.000014   0.000207  -0.001113  -0.001690  -0.000010   0.000002
    23  H   -0.000007   0.000034  -0.004251  -0.003349   0.000003  -0.000007
    24  H    0.000021  -0.000002   0.000001  -0.008234   0.000001  -0.000001
    25  H    0.000000   0.000000   0.000000  -0.000001   0.000027   0.000244
    26  H    0.000001   0.000000   0.000000   0.000029   0.000008   0.000012
    27  H   -0.000001   0.000000   0.000000  -0.000001  -0.001025  -0.000049
    28  H    0.000000   0.000000   0.000000  -0.000001   0.000010  -0.000008
    29  H    0.000000   0.000000   0.000000  -0.000825   0.000002   0.000000
    30  H    0.000000   0.000000   0.000000  -0.000116   0.000000   0.000001
    31  H    0.000000   0.000000   0.000000   0.000011   0.000000  -0.000001
             19         20         21         22         23         24
     1  C    0.000000  -0.003254   0.001313  -0.003389   0.001298   0.000039
     2  C    0.000085  -0.021126  -0.022717  -0.021590  -0.022668  -0.000016
     3  C   -0.023805   0.000002   0.000043  -0.021246  -0.021787  -0.041342
     4  C   -0.024311  -0.021599  -0.023622   0.000005   0.000064   0.000027
     5  C    0.377843   0.001215  -0.002021   0.001109  -0.000981   0.000381
     6  C   -0.002576   0.382663   0.381010   0.001202  -0.001043  -0.000006
     7  C   -0.001600   0.001202  -0.001120   0.381846   0.380210   0.002674
     8  O    0.000596  -0.000001   0.000000  -0.000972   0.000626   0.259283
     9  C   -0.024077  -0.000013   0.000007  -0.000012   0.000004   0.000102
    10  C    0.001146   0.000000  -0.000001   0.000000   0.000000  -0.001126
    11  C   -0.001693   0.000000   0.000000   0.000000   0.000001  -0.000138
    12  H    0.000000   0.000182   0.000024   0.000043  -0.000037  -0.000001
    13  H   -0.000002   0.000007   0.000002   0.000014  -0.000007   0.000021
    14  H    0.000000   0.000039  -0.000036   0.000207   0.000034  -0.000002
    15  H   -0.000018  -0.001195  -0.003871  -0.001113  -0.004251   0.000001
    16  H   -0.002274   0.000002  -0.000009  -0.001690  -0.003349  -0.008234
    17  H    0.001930  -0.002620   0.001979  -0.000010   0.000003   0.000001
    18  H   -0.002447  -0.001980  -0.002910   0.000002  -0.000007  -0.000001
    19  H    0.661296   0.000018   0.000356   0.000018  -0.000082  -0.000054
    20  H    0.000018   0.639940  -0.023553  -0.000033   0.000000   0.000000
    21  H    0.000356  -0.023553   0.650974   0.000000   0.000203   0.000000
    22  H    0.000018  -0.000033   0.000000   0.629526  -0.022253   0.000083
    23  H   -0.000082   0.000000   0.000203  -0.022253   0.645354  -0.000089
    24  H   -0.000054   0.000000   0.000000   0.000083  -0.000089   0.610585
    25  H   -0.004203  -0.000001   0.000004   0.000000   0.000000   0.000003
    26  H   -0.000005   0.000000   0.000000   0.000000   0.000000  -0.000930
    27  H    0.000009   0.000001  -0.000001   0.000000   0.000000   0.000003
    28  H   -0.000029   0.000000   0.000000   0.000000   0.000000   0.000019
    29  H    0.000024   0.000000   0.000000   0.000001   0.000001   0.000069
    30  H    0.000255   0.000000   0.000000   0.000000   0.000000   0.000000
    31  H    0.000003   0.000000   0.000000   0.000000   0.000000  -0.000004
             25         26         27         28         29         30
     1  C    0.000000   0.000000   0.000000   0.000000   0.000000   0.000000
     2  C   -0.000001   0.000000   0.000000   0.000000   0.000000   0.000000
     3  C    0.001080   0.000190   0.000010  -0.000009  -0.000555  -0.000164
     4  C   -0.001663   0.000002  -0.001060   0.000035  -0.000004   0.000014
     5  C   -0.023828  -0.001263  -0.001447   0.001071  -0.001227  -0.002385
     6  C    0.000005  -0.000002   0.000006   0.000000   0.000000   0.000000
     7  C   -0.000014  -0.000003   0.000000   0.000000   0.000002  -0.000002
     8  O   -0.000010  -0.000727   0.000018   0.000009  -0.000148   0.000005
     9  C    0.381746  -0.020350  -0.019420  -0.020121  -0.020688  -0.020116
    10  C   -0.025783   0.382317   0.383433   0.381780  -0.002466   0.001316
    11  C   -0.024709  -0.001931   0.001316  -0.002706   0.381672   0.382338
    12  H    0.000000   0.000000   0.000000   0.000000   0.000000   0.000000
    13  H    0.000000   0.000001  -0.000001   0.000000   0.000000   0.000000
    14  H    0.000000   0.000000   0.000000   0.000000   0.000000   0.000000
    15  H    0.000000   0.000000   0.000000   0.000000   0.000000   0.000000
    16  H   -0.000001   0.000029  -0.000001  -0.000001  -0.000825  -0.000116
    17  H    0.000027   0.000008  -0.001025   0.000010   0.000002   0.000000
    18  H    0.000244   0.000012  -0.000049  -0.000008   0.000000   0.000001
    19  H   -0.004203  -0.000005   0.000009  -0.000029   0.000024   0.000255
    20  H   -0.000001   0.000000   0.000001   0.000000   0.000000   0.000000
    21  H    0.000004   0.000000  -0.000001   0.000000   0.000000   0.000000
    22  H    0.000000   0.000000   0.000000   0.000000   0.000001   0.000000
    23  H    0.000000   0.000000   0.000000   0.000000   0.000001   0.000000
    24  H    0.000003  -0.000930   0.000003   0.000019   0.000069   0.000000
    25  H    0.654765   0.001961  -0.002526  -0.002646   0.001965  -0.001883
    26  H    0.001961   0.631604  -0.021441  -0.022388   0.000367   0.000004
    27  H   -0.002526  -0.021441   0.625298  -0.022160   0.000013  -0.000037
    28  H   -0.002646  -0.022388  -0.022160   0.633702  -0.000018   0.000035
    29  H    0.001965   0.000367   0.000013  -0.000018   0.640031  -0.021742
    30  H   -0.001883   0.000004  -0.000037   0.000035  -0.021742   0.629779
    31  H   -0.003219  -0.000006   0.000023   0.000094  -0.022216  -0.021572
             31
     1  C    0.000000
     2  C    0.000000
     3  C    0.000028
     4  C   -0.000013
     5  C    0.001153
     6  C    0.000000
     7  C    0.000000
     8  O    0.000000
     9  C   -0.019771
    10  C   -0.002030
    11  C    0.382816
    12  H    0.000000
    13  H    0.000000
    14  H    0.000000
    15  H    0.000000
    16  H    0.000011
    17  H    0.000000
    18  H   -0.000001
    19  H    0.000003
    20  H    0.000000
    21  H    0.000000
    22  H    0.000000
    23  H    0.000000
    24  H   -0.000004
    25  H   -0.003219
    26  H   -0.000006
    27  H    0.000023
    28  H    0.000094
    29  H   -0.022216
    30  H   -0.021572
    31  H    0.628478
 Mulliken atomic charges:
              1
     1  C   -0.174751
     2  C   -0.021739
     3  C    0.076257
     4  C   -0.101520
     5  C   -0.038420
     6  C   -0.099561
     7  C   -0.104212
     8  O   -0.316517
     9  C   -0.022346
    10  C   -0.175940
    11  C   -0.174049
    12  H    0.048455
    13  H    0.066200
    14  H    0.052865
    15  H    0.046250
    16  H    0.041714
    17  H    0.056434
    18  H    0.047740
    19  H    0.043596
    20  H    0.050101
    21  H    0.043946
    22  H    0.058251
    23  H    0.048757
    24  H    0.178650
    25  H    0.048683
    26  H    0.052551
    27  H    0.059036
    28  H    0.053332
    29  H    0.045743
    30  H    0.054269
    31  H    0.056224
 Sum of Mulliken atomic charges =   0.00000
 Mulliken charges with hydrogens summed into heavy atoms:
              1
     1  C   -0.007231
     2  C    0.024511
     3  C    0.117971
     4  C    0.002654
     5  C    0.005177
     6  C   -0.005514
     7  C    0.002796
     8  O   -0.137867
     9  C    0.026337
    10  C   -0.011022
    11  C   -0.017813
 Sum of Mulliken charges with hydrogens summed into heavy atoms =   0.00000
 Electronic spatial extent (au):  <R**2>=           1975.8377
 Charge=              0.0000 electrons
 Dipole moment (field-independent basis, Debye):
    X=             -1.0629    Y=             -0.0897    Z=             -0.9274  Tot=              1.4135
 Quadrupole moment (field-independent basis, Debye-Ang):
   XX=            -66.8477   YY=            -66.7001   ZZ=            -68.4748
   XY=              1.5662   XZ=             -1.4791   YZ=              0.5870
 Traceless Quadrupole moment (field-independent basis, Debye-Ang):
   XX=              0.4931   YY=              0.6408   ZZ=             -1.1339
   XY=              1.5662   XZ=             -1.4791   YZ=              0.5870
 Octapole moment (field-independent basis, Debye-Ang**2):
  XXX=             -2.6575  YYY=            -10.5330  ZZZ=              2.8029  XYY=             -3.0851
  XXY=             -3.1197  XXZ=              2.9784  XZZ=             -1.8071  YZZ=             -1.9901
  YYZ=              3.0575  XYZ=              3.5604
 Hexadecapole moment (field-independent basis, Debye-Ang**3):
 XXXX=          -1649.5922 YYYY=           -487.0153 ZZZZ=           -383.2268 XXXY=             -5.4751
 XXXZ=             -6.4899 YYYX=              4.2478 YYYZ=            -10.8309 ZZZX=             -2.7453
 ZZZY=             -8.5537 XXYY=           -353.8894 XXZZ=           -345.2075 YYZZ=           -146.8975
 XXYZ=             -5.4487 YYXZ=             -2.7939 ZZXY=              4.5744
 N-N= 7.049200523770D+02 E-N=-2.481960952788D+03  KE= 4.555348569439D+02
 ******************************Gaussian NBO Version 3.1******************************
             N A T U R A L   A T O M I C   O R B I T A L   A N D
          N A T U R A L   B O N D   O R B I T A L   A N A L Y S I S
 ******************************Gaussian NBO Version 3.1******************************
       /RESON  / : Allow strongly delocalized NBO set
       /NLMO   / : Form Natural Localized Molecular Orbitals
       /NMR /    : Analyze NMR Sheilding Tensor 

 Analyzing the SCF density

 Job title: comment                                                         

 Storage needed:     19864 in NPA,     23691 in NBO,     45933 in NLMO (  33549317 available)


 NATURAL POPULATIONS:  Natural atomic orbital occupancies 
                                                          
   NAO  Atom  No  lang   Type(AO)    Occupancy      Energy
 ----------------------------------------------------------
     1    C    1  S      Cor( 1S)     1.99997     -10.95178
     2    C    1  S      Val( 2S)     1.07996      -0.16875
     3    C    1  px     Val( 2p)     1.02902       0.09454
     4    C    1  py     Val( 2p)     1.02577       0.09744
     5    C    1  pz     Val( 2p)     0.99596       0.10213

     6    C    2  S      Cor( 1S)     1.99997     -10.98262
     7    C    2  S      Val( 2S)     1.08000      -0.18535
     8    C    2  px     Val( 2p)     0.97885       0.11117
     9    C    2  py     Val( 2p)     0.95546       0.11789
    10    C    2  pz     Val( 2p)     0.96916       0.11484

    11    C    3  S      Cor( 1S)     1.99989     -11.03453
    12    C    3  S      Val( 2S)     1.08733      -0.21612
    13    C    3  px     Val( 2p)     0.98197       0.07984
    14    C    3  py     Val( 2p)     0.97044       0.09081
    15    C    3  pz     Val( 2p)     0.81703       0.13157

    16    C    4  S      Cor( 1S)     1.99996     -10.96944
    17    C    4  S      Val( 2S)     1.08334      -0.18306
    18    C    4  px     Val( 2p)     0.97557       0.10321
    19    C    4  py     Val( 2p)     0.99235       0.10046
    20    C    4  pz     Val( 2p)     1.01340       0.09844

    21    C    5  S      Cor( 1S)     1.99995     -10.98639
    22    C    5  S      Val( 2S)     1.10228      -0.20993
    23    C    5  px     Val( 2p)     0.95343       0.10933
    24    C    5  py     Val( 2p)     0.96788       0.10380
    25    C    5  pz     Val( 2p)     0.99469       0.09732

    26    C    6  S      Cor( 1S)     1.99996     -10.96907
    27    C    6  S      Val( 2S)     1.08287      -0.18221
    28    C    6  px     Val( 2p)     0.98153       0.10402
    29    C    6  py     Val( 2p)     0.98872       0.10148
    30    C    6  pz     Val( 2p)     1.00896       0.09877

    31    C    7  S      Cor( 1S)     1.99995     -10.97417
    32    C    7  S      Val( 2S)     1.09169      -0.19443
    33    C    7  px     Val( 2p)     0.97590       0.09858
    34    C    7  py     Val( 2p)     1.00385       0.09158
    35    C    7  pz     Val( 2p)     1.00791       0.09282

    36    O    8  S      Cor( 1S)     1.99999     -20.14020
    37    O    8  S      Val( 2S)     1.74685      -0.99773
    38    O    8  px     Val( 2p)     1.44600      -0.16502
    39    O    8  py     Val( 2p)     1.82736      -0.31036
    40    O    8  pz     Val( 2p)     1.31753      -0.09995

    41    C    9  S      Cor( 1S)     1.99996     -10.99370
    42    C    9  S      Val( 2S)     1.08534      -0.19947
    43    C    9  px     Val( 2p)     0.95546       0.10754
    44    C    9  py     Val( 2p)     0.98197       0.10013
    45    C    9  pz     Val( 2p)     0.95865       0.10976

    46    C   10  S      Cor( 1S)     1.99997     -10.96444
    47    C   10  S      Val( 2S)     1.07945      -0.18072
    48    C   10  px     Val( 2p)     1.02974       0.08134
    49    C   10  py     Val( 2p)     1.03114       0.08363
    50    C   10  pz     Val( 2p)     0.99213       0.09027

    51    C   11  S      Cor( 1S)     1.99997     -10.97020
    52    C   11  S      Val( 2S)     1.08054      -0.18780
    53    C   11  px     Val( 2p)     1.01924       0.07702
    54    C   11  py     Val( 2p)     1.00714       0.08250
    55    C   11  pz     Val( 2p)     1.02268       0.07913

    56    H   12  S      Val( 1S)     0.96829       0.08216

    57    H   13  S      Val( 1S)     0.95265       0.10052

    58    H   14  S      Val( 1S)     0.96409       0.08660

    59    H   15  S      Val( 1S)     0.97796       0.07117

    60    H   16  S      Val( 1S)     0.99304       0.04571

    61    H   17  S      Val( 1S)     0.96541       0.08448

    62    H   18  S      Val( 1S)     0.97277       0.07256

    63    H   19  S      Val( 1S)     0.98081       0.06097

    64    H   20  S      Val( 1S)     0.97055       0.07553

    65    H   21  S      Val( 1S)     0.97655       0.07168

    66    H   22  S      Val( 1S)     0.96309       0.07745

    67    H   23  S      Val( 1S)     0.97156       0.06717

    68    H   24  S      Val( 1S)     0.80851       0.08042

    69    H   25  S      Val( 1S)     0.97638       0.06431

    70    H   26  S      Val( 1S)     0.96499       0.07722

    71    H   27  S      Val( 1S)     0.95857       0.08079

    72    H   28  S      Val( 1S)     0.96352       0.07335

    73    H   29  S      Val( 1S)     0.97095       0.06314

    74    H   30  S      Val( 1S)     0.96310       0.06965

    75    H   31  S      Val( 1S)     0.96111       0.07105


 Summary of Natural Population Analysis:                  
                                                          
                                       Natural Population 
                Natural  -----------------------------------------------
    Atom  No    Charge         Core      Valence    Rydberg      Total
 -----------------------------------------------------------------------
      C    1   -0.13067      1.99997     4.13070    0.00000     6.13067
      C    2    0.01657      1.99997     3.98347    0.00000     5.98343
      C    3    0.14334      1.99989     3.85677    0.00000     5.85666
      C    4   -0.06462      1.99996     4.06467    0.00000     6.06462
      C    5   -0.01823      1.99995     4.01828    0.00000     6.01823
      C    6   -0.06204      1.99996     4.06207    0.00000     6.06204
      C    7   -0.07931      1.99995     4.07935    0.00000     6.07931
      O    8   -0.33775      1.99999     6.33775    0.00000     8.33775
      C    9    0.01862      1.99996     3.98142    0.00000     5.98138
      C   10   -0.13243      1.99997     4.13246    0.00000     6.13243
      C   11   -0.12958      1.99997     4.12961    0.00000     6.12958
      H   12    0.03171      0.00000     0.96829    0.00000     0.96829
      H   13    0.04735      0.00000     0.95265    0.00000     0.95265
      H   14    0.03591      0.00000     0.96409    0.00000     0.96409
      H   15    0.02204      0.00000     0.97796    0.00000     0.97796
      H   16    0.00696      0.00000     0.99304    0.00000     0.99304
      H   17    0.03459      0.00000     0.96541    0.00000     0.96541
      H   18    0.02723      0.00000     0.97277    0.00000     0.97277
      H   19    0.01919      0.00000     0.98081    0.00000     0.98081
      H   20    0.02945      0.00000     0.97055    0.00000     0.97055
      H   21    0.02345      0.00000     0.97655    0.00000     0.97655
      H   22    0.03691      0.00000     0.96309    0.00000     0.96309
      H   23    0.02844      0.00000     0.97156    0.00000     0.97156
      H   24    0.19149      0.00000     0.80851    0.00000     0.80851
      H   25    0.02362      0.00000     0.97638    0.00000     0.97638
      H   26    0.03501      0.00000     0.96499    0.00000     0.96499
      H   27    0.04143      0.00000     0.95857    0.00000     0.95857
      H   28    0.03648      0.00000     0.96352    0.00000     0.96352
      H   29    0.02905      0.00000     0.97095    0.00000     0.97095
      H   30    0.03690      0.00000     0.96310    0.00000     0.96310
      H   31    0.03889      0.00000     0.96111    0.00000     0.96111
 =======================================================================
   * Total *    0.00000     21.99954    66.00046    0.00000    88.00000

                                 Natural Population      
 --------------------------------------------------------
   Core                      21.99954 ( 99.9979% of  22)
   Valence                   66.00046 (100.0007% of  66)
   Natural Minimal Basis     88.00000 (100.0000% of  88)
   Natural Rydberg Basis      0.00000 (  0.0000% of  88)
 --------------------------------------------------------

    Atom  No          Natural Electron Configuration
 ----------------------------------------------------------------------------
      C    1      [core]2S( 1.08)2p( 3.05)
      C    2      [core]2S( 1.08)2p( 2.90)
      C    3      [core]2S( 1.09)2p( 2.77)
      C    4      [core]2S( 1.08)2p( 2.98)
      C    5      [core]2S( 1.10)2p( 2.92)
      C    6      [core]2S( 1.08)2p( 2.98)
      C    7      [core]2S( 1.09)2p( 2.99)
      O    8      [core]2S( 1.75)2p( 4.59)
      C    9      [core]2S( 1.09)2p( 2.90)
      C   10      [core]2S( 1.08)2p( 3.05)
      C   11      [core]2S( 1.08)2p( 3.05)
      H   12            1S( 0.97)
      H   13            1S( 0.95)
      H   14            1S( 0.96)
      H   15            1S( 0.98)
      H   16            1S( 0.99)
      H   17            1S( 0.97)
      H   18            1S( 0.97)
      H   19            1S( 0.98)
      H   20            1S( 0.97)
      H   21            1S( 0.98)
      H   22            1S( 0.96)
      H   23            1S( 0.97)
      H   24            1S( 0.81)
      H   25            1S( 0.98)
      H   26            1S( 0.96)
      H   27            1S( 0.96)
      H   28            1S( 0.96)
      H   29            1S( 0.97)
      H   30            1S( 0.96)
      H   31            1S( 0.96)


 NATURAL BOND ORBITAL ANALYSIS:

                       Occupancies       Lewis Structure    Low   High
           Occ.    -------------------  -----------------   occ   occ
  Cycle   Thresh.   Lewis   Non-Lewis     CR  BD  3C  LP    (L)   (NL)   Dev
 =============================================================================
   1(1)    1.90    87.63515   0.36485     11  31   0   2     0      0    0.02
 -----------------------------------------------------------------------------

 Structure accepted: No low occupancy Lewis orbitals

 --------------------------------------------------------
   Core                     21.99954 ( 99.998% of  22)
   Valence Lewis            65.63562 ( 99.448% of  66)
  ==================       ============================
   Total Lewis              87.63515 ( 99.585% of  88)
  -----------------------------------------------------
   Valence non-Lewis         0.36485 (  0.415% of  88)
   Rydberg non-Lewis         0.00000 (  0.000% of  88)
  ==================       ============================
   Total non-Lewis           0.36485 (  0.415% of  88)
 --------------------------------------------------------


       (Occupancy)   Bond orbital/ Coefficients/ Hybrids
 ---------------------------------------------------------------------------------
     1. (1.99057) BD ( 1) C   1 - C   2  
                ( 50.66%)   0.7118* C   1 s( 25.82%)p 2.87( 74.18%)
                                            0.0001  0.5082 -0.2688  0.0932 -0.8129
                ( 49.34%)   0.7024* C   2 s( 25.29%)p 2.95( 74.71%)
                                            0.0000  0.5029  0.2150 -0.0971  0.8315
     2. (1.99476) BD ( 1) C   1 - H  12  
                ( 51.58%)   0.7182* C   1 s( 24.38%)p 3.10( 75.62%)
                                            0.0000  0.4938  0.5848  0.6162  0.1859
                ( 48.42%)   0.6958* H  12 s(100.00%)
                                            1.0000
     3. (1.99531) BD ( 1) C   1 - H  13  
                ( 52.44%)   0.7242* C   1 s( 25.09%)p 2.99( 74.91%)
                                            0.0000  0.5009 -0.6703  0.0710  0.5429
                ( 47.56%)   0.6896* H  13 s(100.00%)
                                            1.0000
     4. (1.99470) BD ( 1) C   1 - H  14  
                ( 51.80%)   0.7197* C   1 s( 24.71%)p 3.05( 75.29%)
                                            0.0000  0.4971  0.3694 -0.7788  0.0993
                ( 48.20%)   0.6943* H  14 s(100.00%)
                                            1.0000
     5. (1.98537) BD ( 1) C   2 - C   6  
                ( 49.55%)   0.7039* C   2 s( 25.17%)p 2.97( 74.83%)
                                            0.0000  0.5017 -0.3951  0.7613 -0.1123
                ( 50.45%)   0.7103* C   6 s( 25.45%)p 2.93( 74.55%)
                                            0.0001  0.5045  0.3614 -0.7699  0.1487
     6. (1.98534) BD ( 1) C   2 - C   7  
                ( 49.31%)   0.7022* C   2 s( 25.22%)p 2.97( 74.78%)
                                            0.0000  0.5022 -0.5281 -0.6407 -0.2420
                ( 50.69%)   0.7120* C   7 s( 25.38%)p 2.94( 74.62%)
                                            0.0001  0.5038  0.4800  0.6547  0.2953
     7. (1.98424) BD ( 1) C   2 - H  15  
                ( 50.97%)   0.7140* C   2 s( 24.32%)p 3.11( 75.68%)
                                            0.0000  0.4932  0.7203 -0.0231 -0.4872
                ( 49.03%)   0.7002* H  15 s(100.00%)
                                            1.0000
     8. (1.98363) BD ( 1) C   3 - C   5  
                ( 49.99%)   0.7071* C   3 s( 26.25%)p 2.81( 73.75%)
                                            0.0000  0.5123 -0.3483  0.7754 -0.1221
                ( 50.01%)   0.7072* C   5 s( 25.38%)p 2.94( 74.62%)
                                            0.0000  0.5038  0.3235 -0.7766  0.1961
     9. (1.98633) BD ( 1) C   3 - C   7  
                ( 49.96%)   0.7068* C   3 s( 26.16%)p 2.82( 73.84%)
                                            0.0000  0.5115  0.8217 -0.0085 -0.2514
                ( 50.04%)   0.7074* C   7 s( 25.25%)p 2.96( 74.75%)
                                            0.0001  0.5025 -0.8058  0.0658  0.3064
    10. (1.98960) BD ( 1) C   3 - O   8  
                ( 40.94%)   0.6399* C   3 s( 22.36%)p 3.47( 77.64%)
                                            0.0000  0.4729 -0.0335 -0.1922  0.8593
                ( 59.06%)   0.7685* O   8 s( 16.68%)p 5.00( 83.32%)
                                            0.0000  0.4084 -0.0444  0.2022 -0.8890
    11. (1.98796) BD ( 1) C   3 - H  16  
                ( 50.55%)   0.7110* C   3 s( 25.23%)p 2.96( 74.77%)
                                            0.0000  0.5023 -0.4499 -0.6014 -0.4285
                ( 49.45%)   0.7032* H  16 s(100.00%)
                                            1.0000
    12. (1.98453) BD ( 1) C   4 - C   5  
                ( 50.18%)   0.7083* C   4 s( 25.21%)p 2.97( 74.79%)
                                            0.0001  0.5021 -0.4906 -0.6371 -0.3185
                ( 49.82%)   0.7059* C   5 s( 25.25%)p 2.96( 74.75%)
                                            0.0000  0.5025  0.4879  0.6189  0.3554
    13. (1.98961) BD ( 1) C   4 - C   6  
                ( 49.99%)   0.7070* C   4 s( 25.12%)p 2.98( 74.88%)
                                            0.0000  0.5012  0.8000 -0.0588 -0.3246
                ( 50.01%)   0.7072* C   6 s( 25.31%)p 2.95( 74.69%)
                                            0.0000  0.5031 -0.7997  0.0175  0.3271
    14. (1.98983) BD ( 1) C   4 - H  17  
                ( 51.77%)   0.7195* C   4 s( 24.85%)p 3.02( 75.15%)
                                            0.0000  0.4985  0.0335 -0.0647  0.8638
                ( 48.23%)   0.6945* H  17 s(100.00%)
                                            1.0000
    15. (1.98944) BD ( 1) C   4 - H  18  
                ( 51.32%)   0.7164* C   4 s( 24.83%)p 3.03( 75.17%)
                                            0.0000  0.4983 -0.3438  0.7658 -0.2168
                ( 48.68%)   0.6977* H  18 s(100.00%)
                                            1.0000
    16. (1.97899) BD ( 1) C   5 - C   9  
                ( 49.88%)   0.7063* C   5 s( 25.69%)p 2.89( 74.31%)
                                            0.0001  0.5069 -0.8107  0.0633  0.2860
                ( 50.12%)   0.7079* C   9 s( 25.60%)p 2.91( 74.40%)
                                            0.0001  0.5060  0.8317 -0.1366 -0.1835
    17. (1.98234) BD ( 1) C   5 - H  19  
                ( 50.80%)   0.7128* C   5 s( 23.68%)p 3.22( 76.32%)
                                            0.0000  0.4866  0.0057  0.0989 -0.8680
                ( 49.20%)   0.7014* H  19 s(100.00%)
                                            1.0000
    18. (1.98990) BD ( 1) C   6 - H  20  
                ( 51.46%)   0.7173* C   6 s( 25.01%)p 3.00( 74.99%)
                                            0.0000  0.5001  0.4779  0.6226  0.3659
                ( 48.54%)   0.6967* H  20 s(100.00%)
                                            1.0000
    19. (1.99057) BD ( 1) C   6 - H  21  
                ( 51.17%)   0.7154* C   6 s( 24.23%)p 3.13( 75.77%)
                                            0.0000  0.4922 -0.0384  0.1387 -0.8585
                ( 48.83%)   0.6988* H  21 s(100.00%)
                                            1.0000
    20. (1.98889) BD ( 1) C   7 - H  22  
                ( 51.80%)   0.7198* C   7 s( 25.14%)p 2.98( 74.86%)
                                            0.0000  0.5014  0.3463 -0.7525  0.2500
                ( 48.20%)   0.6942* H  22 s(100.00%)
                                            1.0000
    21. (1.98855) BD ( 1) C   7 - H  23  
                ( 51.33%)   0.7164* C   7 s( 24.23%)p 3.13( 75.77%)
                                            0.0000  0.4922 -0.0213  0.0292 -0.8697
                ( 48.67%)   0.6976* H  23 s(100.00%)
                                            1.0000
    22. (1.98898) BD ( 1) O   8 - H  24  
                ( 59.59%)   0.7719* O   8 s( 16.84%)p 4.94( 83.16%)
                                            0.0000 -0.4104  0.8237  0.3626 -0.1472
                ( 40.41%)   0.6357* H  24 s(100.00%)
                                           -1.0000
    23. (1.99039) BD ( 1) C   9 - C  10  
                ( 49.14%)   0.7010* C   9 s( 25.53%)p 2.92( 74.47%)
                                            0.0000  0.5053 -0.1075  0.0708  0.8533
                ( 50.86%)   0.7132* C  10 s( 25.95%)p 2.85( 74.05%)
                                            0.0001  0.5094  0.1644 -0.1108 -0.8374
    24. (1.98951) BD ( 1) C   9 - C  11  
                ( 48.82%)   0.6987* C   9 s( 24.96%)p 3.01( 75.04%)
                                            0.0000  0.4996 -0.4782 -0.6563 -0.3016
                ( 51.18%)   0.7154* C  11 s( 25.77%)p 2.88( 74.23%)
                                            0.0001  0.5077  0.5084  0.6214  0.3125
    25. (1.98364) BD ( 1) C   9 - H  25  
                ( 51.04%)   0.7144* C   9 s( 23.91%)p 3.18( 76.09%)
                                            0.0000  0.4890 -0.2609  0.7386 -0.3837
                ( 48.96%)   0.6997* H  25 s(100.00%)
                                            1.0000
    26. (1.99450) BD ( 1) C  10 - H  26  
                ( 51.82%)   0.7198* C  10 s( 24.94%)p 3.01( 75.06%)
                                            0.0000  0.4994  0.2349 -0.7063  0.4434
                ( 48.18%)   0.6941* H  26 s(100.00%)
                                            1.0000
    27. (1.99454) BD ( 1) C  10 - H  27  
                ( 52.09%)   0.7218* C  10 s( 24.82%)p 3.03( 75.18%)
                                            0.0000  0.4982  0.4389  0.6856  0.2985
                ( 47.91%)   0.6921* H  27 s(100.00%)
                                            1.0000
    28. (1.99409) BD ( 1) C  10 - H  28  
                ( 51.81%)   0.7198* C  10 s( 24.29%)p 3.12( 75.71%)
                                            0.0000  0.4928 -0.8516  0.1372  0.1145
                ( 48.19%)   0.6942* H  28 s(100.00%)
                                            1.0000
    29. (1.99473) BD ( 1) C  11 - H  29  
                ( 51.49%)   0.7176* C  11 s( 24.77%)p 3.04( 75.23%)
                                            0.0000  0.4977  0.1650 -0.7471  0.4086
                ( 48.51%)   0.6965* H  29 s(100.00%)
                                            1.0000
    30. (1.99504) BD ( 1) C  11 - H  30  
                ( 51.86%)   0.7202* C  11 s( 24.78%)p 3.04( 75.22%)
                                            0.0000  0.4978  0.1471 -0.1001 -0.8488
                ( 48.14%)   0.6938* H  30 s(100.00%)
                                            1.0000
    31. (1.99464) BD ( 1) C  11 - H  31  
                ( 51.94%)   0.7207* C  11 s( 24.68%)p 3.05( 75.32%)
                                            0.0000  0.4968 -0.8323  0.2137  0.1219
                ( 48.06%)   0.6932* H  31 s(100.00%)
                                            1.0000
    32. (1.99997) CR ( 1) C   1           s(100.00%)
                                            1.0000  0.0000  0.0000  0.0000  0.0001
    33. (1.99997) CR ( 1) C   2           s(100.00%)
                                            1.0000  0.0000  0.0000  0.0000  0.0000
    34. (1.99989) CR ( 1) C   3           s(100.00%)
                                            1.0000  0.0000  0.0000  0.0000  0.0000
    35. (1.99996) CR ( 1) C   4           s(100.00%)
                                            1.0000  0.0000  0.0000  0.0001  0.0000
    36. (1.99995) CR ( 1) C   5           s(100.00%)
                                            1.0000  0.0000  0.0000  0.0000  0.0000
    37. (1.99996) CR ( 1) C   6           s(100.00%)
                                            1.0000  0.0000  0.0000  0.0001  0.0000
    38. (1.99995) CR ( 1) C   7           s(100.00%)
                                            1.0000 -0.0001  0.0000 -0.0001 -0.0001
    39. (1.99999) CR ( 1) O   8           s(100.00%)
                                            1.0000  0.0000  0.0000  0.0000  0.0000
    40. (1.99996) CR ( 1) C   9           s(100.00%)
                                            1.0000  0.0000 -0.0001  0.0000  0.0000
    41. (1.99997) CR ( 1) C  10           s(100.00%)
                                            1.0000  0.0000  0.0000  0.0000  0.0001
    42. (1.99997) CR ( 1) C  11           s(100.00%)
                                            1.0000  0.0000 -0.0001  0.0000  0.0000
    43. (1.99278) LP ( 1) O   8           s( 66.30%)p 0.51( 33.70%)
                                            0.0000  0.8143  0.4174  0.1285  0.3824
    44. (1.97230) LP ( 2) O   8           s(  0.18%)p99.99( 99.82%)
                                            0.0000  0.0426  0.3812 -0.9006 -0.2043
    45. (0.01096) BD*( 1) C   1 - C   2  
                ( 49.34%)   0.7024* C   1 s( 25.82%)p 2.87( 74.18%)
                                           -0.0001 -0.5082  0.2688 -0.0932  0.8129
                ( 50.66%)  -0.7118* C   2 s( 25.29%)p 2.95( 74.71%)
                                            0.0000 -0.5029 -0.2150  0.0971 -0.8315
    46. (0.00488) BD*( 1) C   1 - H  12  
                ( 48.42%)   0.6958* C   1 s( 24.38%)p 3.10( 75.62%)
                                            0.0000 -0.4938 -0.5848 -0.6162 -0.1859
                ( 51.58%)  -0.7182* H  12 s(100.00%)
                                           -1.0000
    47. (0.00719) BD*( 1) C   1 - H  13  
                ( 47.56%)   0.6896* C   1 s( 25.09%)p 2.99( 74.91%)
                                            0.0000 -0.5009  0.6703 -0.0710 -0.5429
                ( 52.44%)  -0.7242* H  13 s(100.00%)
                                           -1.0000
    48. (0.00499) BD*( 1) C   1 - H  14  
                ( 48.20%)   0.6943* C   1 s( 24.71%)p 3.05( 75.29%)
                                            0.0000 -0.4971 -0.3694  0.7788 -0.0993
                ( 51.80%)  -0.7197* H  14 s(100.00%)
                                           -1.0000
    49. (0.01631) BD*( 1) C   2 - C   6  
                ( 50.45%)   0.7103* C   2 s( 25.17%)p 2.97( 74.83%)
                                            0.0000  0.5017 -0.3951  0.7613 -0.1123
                ( 49.55%)  -0.7039* C   6 s( 25.45%)p 2.93( 74.55%)
                                            0.0001  0.5045  0.3614 -0.7699  0.1487
    50. (0.01677) BD*( 1) C   2 - C   7  
                ( 50.69%)   0.7120* C   2 s( 25.22%)p 2.97( 74.78%)
                                            0.0000  0.5022 -0.5281 -0.6407 -0.2420
                ( 49.31%)  -0.7022* C   7 s( 25.38%)p 2.94( 74.62%)
                                            0.0001  0.5038  0.4800  0.6547  0.2953
    51. (0.01017) BD*( 1) C   2 - H  15  
                ( 49.03%)   0.7002* C   2 s( 24.32%)p 3.11( 75.68%)
                                            0.0000 -0.4932 -0.7203  0.0231  0.4872
                ( 50.97%)  -0.7140* H  15 s(100.00%)
                                           -1.0000
    52. (0.03645) BD*( 1) C   3 - C   5  
                ( 50.01%)   0.7072* C   3 s( 26.25%)p 2.81( 73.75%)
                                            0.0000  0.5123 -0.3483  0.7754 -0.1221
                ( 49.99%)  -0.7071* C   5 s( 25.38%)p 2.94( 74.62%)
                                            0.0000  0.5038  0.3235 -0.7766  0.1961
    53. (0.02395) BD*( 1) C   3 - C   7  
                ( 50.04%)   0.7074* C   3 s( 26.16%)p 2.82( 73.84%)
                                            0.0000  0.5115  0.8217 -0.0085 -0.2514
                ( 49.96%)  -0.7068* C   7 s( 25.25%)p 2.96( 74.75%)
                                            0.0001  0.5025 -0.8058  0.0658  0.3064
    54. (0.02241) BD*( 1) C   3 - O   8  
                ( 59.06%)   0.7685* C   3 s( 22.36%)p 3.47( 77.64%)
                                            0.0000  0.4729 -0.0335 -0.1922  0.8593
                ( 40.94%)  -0.6399* O   8 s( 16.68%)p 5.00( 83.32%)
                                            0.0000  0.4084 -0.0444  0.2022 -0.8890
    55. (0.01980) BD*( 1) C   3 - H  16  
                ( 49.45%)   0.7032* C   3 s( 25.23%)p 2.96( 74.77%)
                                            0.0000 -0.5023  0.4499  0.6014  0.4285
                ( 50.55%)  -0.7110* H  16 s(100.00%)
                                           -1.0000
    56. (0.01604) BD*( 1) C   4 - C   5  
                ( 49.82%)   0.7059* C   4 s( 25.21%)p 2.97( 74.79%)
                                           -0.0001 -0.5021  0.4906  0.6371  0.3185
                ( 50.18%)  -0.7083* C   5 s( 25.25%)p 2.96( 74.75%)
                                            0.0000 -0.5025 -0.4879 -0.6189 -0.3554
    57. (0.01173) BD*( 1) C   4 - C   6  
                ( 50.01%)   0.7072* C   4 s( 25.12%)p 2.98( 74.88%)
                                            0.0000  0.5012  0.8000 -0.0588 -0.3246
                ( 49.99%)  -0.7070* C   6 s( 25.31%)p 2.95( 74.69%)
                                            0.0000  0.5031 -0.7997  0.0175  0.3271
    58. (0.01094) BD*( 1) C   4 - H  17  
                ( 48.23%)   0.6945* C   4 s( 24.85%)p 3.02( 75.15%)
                                            0.0000 -0.4985 -0.0335  0.0647 -0.8638
                ( 51.77%)  -0.7195* H  17 s(100.00%)
                                           -1.0000
    59. (0.00850) BD*( 1) C   4 - H  18  
                ( 48.68%)   0.6977* C   4 s( 24.83%)p 3.03( 75.17%)
                                            0.0000 -0.4983  0.3438 -0.7658  0.2168
                ( 51.32%)  -0.7164* H  18 s(100.00%)
                                           -1.0000
    60. (0.02328) BD*( 1) C   5 - C   9  
                ( 50.12%)   0.7079* C   5 s( 25.69%)p 2.89( 74.31%)
                                            0.0001  0.5069 -0.8107  0.0633  0.2860
                ( 49.88%)  -0.7063* C   9 s( 25.60%)p 2.91( 74.40%)
                                            0.0001  0.5060  0.8317 -0.1366 -0.1835
    61. (0.01092) BD*( 1) C   5 - H  19  
                ( 49.20%)   0.7014* C   5 s( 23.68%)p 3.22( 76.32%)
                                            0.0000 -0.4866 -0.0057 -0.0989  0.8680
                ( 50.80%)  -0.7128* H  19 s(100.00%)
                                           -1.0000
    62. (0.00890) BD*( 1) C   6 - H  20  
                ( 48.54%)   0.6967* C   6 s( 25.01%)p 3.00( 74.99%)
                                            0.0000 -0.5001 -0.4779 -0.6226 -0.3659
                ( 51.46%)  -0.7173* H  20 s(100.00%)
                                           -1.0000
    63. (0.00908) BD*( 1) C   6 - H  21  
                ( 48.83%)   0.6988* C   6 s( 24.23%)p 3.13( 75.77%)
                                            0.0000 -0.4922  0.0384 -0.1387  0.8585
                ( 51.17%)  -0.7154* H  21 s(100.00%)
                                           -1.0000
    64. (0.00874) BD*( 1) C   7 - H  22  
                ( 48.20%)   0.6942* C   7 s( 25.14%)p 2.98( 74.86%)
                                            0.0000 -0.5014 -0.3463  0.7525 -0.2500
                ( 51.80%)  -0.7198* H  22 s(100.00%)
                                           -1.0000
    65. (0.00727) BD*( 1) C   7 - H  23  
                ( 48.67%)   0.6976* C   7 s( 24.23%)p 3.13( 75.77%)
                                            0.0000 -0.4922  0.0213 -0.0292  0.8697
                ( 51.33%)  -0.7164* H  23 s(100.00%)
                                           -1.0000
    66. (0.00801) BD*( 1) O   8 - H  24  
                ( 40.41%)   0.6357* O   8 s( 16.84%)p 4.94( 83.16%)
                                            0.0000  0.4104 -0.8237 -0.3626  0.1472
                ( 59.59%)  -0.7719* H  24 s(100.00%)
                                            1.0000
    67. (0.01142) BD*( 1) C   9 - C  10  
                ( 50.86%)   0.7132* C   9 s( 25.53%)p 2.92( 74.47%)
                                            0.0000  0.5053 -0.1075  0.0708  0.8533
                ( 49.14%)  -0.7010* C  10 s( 25.95%)p 2.85( 74.05%)
                                            0.0001  0.5094  0.1644 -0.1108 -0.8374
    68. (0.01074) BD*( 1) C   9 - C  11  
                ( 51.18%)   0.7154* C   9 s( 24.96%)p 3.01( 75.04%)
                                            0.0000  0.4996 -0.4782 -0.6563 -0.3016
                ( 48.82%)  -0.6987* C  11 s( 25.77%)p 2.88( 74.23%)
                                            0.0001  0.5077  0.5084  0.6214  0.3125
    69. (0.01011) BD*( 1) C   9 - H  25  
                ( 48.96%)   0.6997* C   9 s( 23.91%)p 3.18( 76.09%)
                                            0.0000 -0.4890  0.2609 -0.7386  0.3837
                ( 51.04%)  -0.7144* H  25 s(100.00%)
                                           -1.0000
    70. (0.00771) BD*( 1) C  10 - H  26  
                ( 48.18%)   0.6941* C  10 s( 24.94%)p 3.01( 75.06%)
                                            0.0000 -0.4994 -0.2349  0.7063 -0.4434
                ( 51.82%)  -0.7198* H  26 s(100.00%)
                                           -1.0000
    71. (0.00584) BD*( 1) C  10 - H  27  
                ( 47.91%)   0.6921* C  10 s( 24.82%)p 3.03( 75.18%)
                                            0.0000 -0.4982 -0.4389 -0.6856 -0.2985
                ( 52.09%)  -0.7218* H  27 s(100.00%)
                                           -1.0000
    72. (0.00492) BD*( 1) C  10 - H  28  
                ( 48.19%)   0.6942* C  10 s( 24.29%)p 3.12( 75.71%)
                                            0.0000 -0.4928  0.8516 -0.1372 -0.1145
[...]
   21       4.7580       -2.9656       7.7235        -6.1211      10.8791
   38     200.0078       -0.0028     200.0105         0.0034     200.0044
 Sum      214.1200      -22.1356     236.2556       -26.5545     240.6745

 Contributions to Isotropic shielding for atom    8 (   366.8149 ppm):
                         Standard Origin              Atomic Origin
 NLMO      Total    Paramagnetic  Diamagnetic   Paramagnetic  Diamagnetic
    8       2.0020        1.4757       0.5263         1.3096       0.6924
    9       1.0511        1.0048       0.0463         0.2640       0.7871
   10      25.8620       10.9131      14.9490        15.2665      10.5955
   11      -0.5821       -1.0906       0.5085        -1.8033       1.2212
   20      -0.2858       -0.9318       0.6460        -1.2036       0.9178
   22      24.2311       12.9230      11.3082         9.7738      14.4573
   26      -0.3533       -1.0807       0.7274        -0.8651       0.5118
   39     271.1827       -0.0048     271.1875        -0.0036     271.1863
   43      34.0681       -2.3379      36.4060        -3.3309      37.3990
   44       8.8161      -29.6904      38.5065       -31.0555      39.8716
 Sum      365.9921       -8.8197     374.8118       -11.6481     377.6401

 Contributions to Isotropic shielding for atom    9 (   213.1557 ppm):
                         Standard Origin              Atomic Origin
 NLMO      Total    Paramagnetic  Diamagnetic   Paramagnetic  Diamagnetic
   10       0.0019       -0.1975       0.1994        -0.9998       1.0018
   16       5.2327       -9.6472      14.8799        -2.6268       7.8595
   23      -0.4957       -6.3359       5.8403        -8.0934       7.5978
   24      -1.6717       -5.0706       3.3989        -9.0512       7.3795
   25       5.3806       -0.2714       5.6520        -5.4659      10.8465
   26       0.8560       -0.3324       1.1885        -0.1708       1.0268
   27       0.6273       -0.4663       1.0936        -0.3735       1.0008
   28       0.5980       -0.1590       0.7570        -0.4250       1.0230
   29       1.0444       -0.3163       1.3607         0.0163       1.0282
   30       0.6731       -0.6161       1.2892        -0.3684       1.0415
   31       0.6107       -0.3093       0.9199        -0.4208       1.0314
   40     199.9252       -0.0024     199.9276         0.0028     199.9224
 Sum      212.7826      -23.7244     236.5070       -27.9767     240.7593

 Contributions to Isotropic shielding for atom   10 (   223.3887 ppm):
                         Standard Origin              Atomic Origin
 NLMO      Total    Paramagnetic  Diamagnetic   Paramagnetic  Diamagnetic
   23       3.8713       -9.2243      13.0955        -4.0683       7.9396
   24      -0.3904       -0.0176      -0.3728        -1.0362       0.6458
   25       0.3361        0.0076       0.3285        -0.7066       1.0427
   26       6.7131       -5.4068      12.1199        -4.4144      11.1275
   27       6.6836       -4.3592      11.0428        -4.5201      11.2037
   28       5.5390        3.3151       2.2239        -5.5227      11.0617
   41     200.0748       -0.0025     200.0773         0.0016     200.0732
 Sum      222.8275      -15.6876     238.5151       -20.2668     243.0943

 Contributions to Isotropic shielding for atom   11 (   221.9568 ppm):
                         Standard Origin              Atomic Origin
 NLMO      Total    Paramagnetic  Diamagnetic   Paramagnetic  Diamagnetic
   23      -0.4937        0.0060      -0.4997        -1.1929       0.6991
   24       4.2613      -11.1716      15.4330        -3.8067       8.0680
   25       0.3325        0.1974       0.1351        -0.6739       1.0065
   28      -0.1138       -0.5231       0.4093        -1.0325       0.9187
   29       6.6600       -4.8485      11.5085        -4.3457      11.0057
   30       5.8486       -3.6617       9.5104        -5.2773      11.1259
   31       5.0228        2.8168       2.2060        -6.1199      11.1428
   42     200.0753       -0.0032     200.0785         0.0020     200.0732
 Sum      221.5931      -17.1879     238.7810       -22.4469     244.0400

 Contributions to Isotropic shielding for atom   12 (    32.6001 ppm):
                         Standard Origin              Atomic Origin
 NLMO      Total    Paramagnetic  Diamagnetic   Paramagnetic  Diamagnetic
    1       1.2369        0.6075       0.6294         0.2199       1.0170
    2      26.4954        0.0728      26.4226         0.4339      26.0615
    3       2.0841        0.7426       1.3415         0.1922       1.8920
    4       1.9559        2.3215      -0.3656         0.1103       1.8456
 Sum       31.7724        3.7444      28.0279         0.9562      30.8161

 Contributions to Isotropic shielding for atom   13 (    32.0318 ppm):
                         Standard Origin              Atomic Origin
 NLMO      Total    Paramagnetic  Diamagnetic   Paramagnetic  Diamagnetic
    1       1.5973       -1.2308       2.8281         0.7156       0.8817
    2       1.9496        1.1199       0.8296         0.1022       1.8474
    3      26.0073        0.4103      25.5970         0.3860      25.6212
    4       1.9691        0.8036       1.1655         0.1357       1.8335
   43      -0.8784        0.0385      -0.9169         0.4365      -1.3149
 Sum       30.6448        1.1414      29.5033         1.7759      28.8689

 Contributions to Isotropic shielding for atom   14 (    32.4541 ppm):
                         Standard Origin              Atomic Origin
 NLMO      Total    Paramagnetic  Diamagnetic   Paramagnetic  Diamagnetic
    1       1.3271        0.3209       1.0062         0.3272       0.9999
    2       1.9095        2.3703      -0.4608         0.0876       1.8219
    3       2.1288        0.4896       1.6392         0.2459       1.8829
    4      26.3527        0.1293      26.2234         0.4147      25.9380
 Sum       31.7181        3.3101      28.4080         1.0753      30.6427

 Contributions to Isotropic shielding for atom   15 (    32.4037 ppm):
                         Standard Origin              Atomic Origin
 NLMO      Total    Paramagnetic  Diamagnetic   Paramagnetic  Diamagnetic
    1       0.8076        2.2537      -1.4461        -0.2591       1.0667
    2       0.2215       -0.2546       0.4761        -0.7786       1.0001
    5       1.1841        1.4357      -0.2515         0.1939       0.9902
    6       1.2723        1.2140       0.0583         0.2679       1.0044
    7      26.6255       -0.3413      26.9668         0.5068      26.1186
   19       0.1293        0.0310       0.0983        -0.9181       1.0474
   21       0.0950        0.1200      -0.0249        -0.9890       1.0840
 Sum       30.3353        4.4584      25.8769        -1.9762      32.3114

 Contributions to Isotropic shielding for atom   16 (    31.9565 ppm):
                         Standard Origin              Atomic Origin
 NLMO      Total    Paramagnetic  Diamagnetic   Paramagnetic  Diamagnetic
    9       0.7130        0.8762      -0.1632        -0.5069       1.2199
   10       0.5677        0.9046      -0.3369        -0.8775       1.4452
   11      26.8552        0.2849      26.5703         0.8106      26.0447
   21       0.1831       -0.4797       0.6628        -0.8758       1.0589
   22       0.0488       -0.6983       0.7471        -1.0410       1.0898
   29      -0.2287       -1.2631       1.0345        -1.0418       0.8132
 Sum       28.1392       -0.3755      28.5146        -3.5325      31.6716

 Contributions to Isotropic shielding for atom   17 (    32.2641 ppm):
                         Standard Origin              Atomic Origin
 NLMO      Total    Paramagnetic  Diamagnetic   Paramagnetic  Diamagnetic
   10       0.0865       -0.4759       0.5624        -1.1997       1.2862
   12       1.3833       -0.0911       1.4745         0.5164       0.8670
   13       1.1118        0.7611       0.3507         0.1489       0.9629
   14      26.2527        0.2194      26.0332         0.4020      25.8507
   15       2.0128        1.3625       0.6503         0.2663       1.7465
   23       0.0226       -0.7003       0.7228        -1.0131       1.0357
   27      -0.3645       -1.4289       1.0643        -0.9785       0.6139
 Sum       30.5051       -0.3532      30.8583        -1.8577      32.3628

 Contributions to Isotropic shielding for atom   18 (    32.6187 ppm):
                         Standard Origin              Atomic Origin
 NLMO      Total    Paramagnetic  Diamagnetic   Paramagnetic  Diamagnetic
   12       1.3218        0.6484       0.6734         0.3869       0.9349
   13       1.0485        1.5163      -0.4678         0.0324       1.0161
   14       2.1597        1.1345       1.0252         0.4015       1.7582
   15      26.4833        0.0316      26.4517         0.4362      26.0470
 Sum       31.0132        3.3308      27.6824         1.2570      29.7562

 Contributions to Isotropic shielding for atom   19 (    32.8291 ppm):
                         Standard Origin              Atomic Origin
 NLMO      Total    Paramagnetic  Diamagnetic   Paramagnetic  Diamagnetic
    8       1.3797        0.8809       0.4989         0.3952       0.9845
   12       1.2176        0.9419       0.2756         0.1954       1.0222
   16       1.0580        1.3843      -0.3263        -0.0903       1.1483
   17      26.6049       -0.0295      26.6345         0.4357      26.1693
   30      -0.1283       -1.3086       1.1802        -0.9920       0.8637
 Sum       30.1319        1.8690      28.2629        -0.0560      30.1879

 Contributions to Isotropic shielding for atom   20 (    32.3883 ppm):
                         Standard Origin              Atomic Origin
 NLMO      Total    Paramagnetic  Diamagnetic   Paramagnetic  Diamagnetic
    1      -0.0883       -0.0537      -0.0346        -1.0966       1.0083
    5       1.0765        1.2065      -0.1301         0.1640       0.9124
   13       1.2398        0.5709       0.6689         0.2282       1.0116
   18      26.4658        0.0183      26.4475         0.4941      25.9717
   19       1.9907        1.8494       0.1413         0.2632       1.7275
 Sum       30.6844        3.5914      27.0930         0.0528      30.6315

 Contributions to Isotropic shielding for atom   21 (    32.5584 ppm):
                         Standard Origin              Atomic Origin
 NLMO      Total    Paramagnetic  Diamagnetic   Paramagnetic  Diamagnetic
    5       1.2025        0.7704       0.4321         0.2122       0.9903
   13       1.3620        0.1243       1.2377         0.3990       0.9630
   18       1.9447        2.0245      -0.0798         0.1669       1.7778
   19      26.5874        0.0978      26.4896         0.4429      26.1445
 Sum       31.0966        3.0171      28.0795         1.2209      29.8756

 Contributions to Isotropic shielding for atom   22 (    32.0110 ppm):
                         Standard Origin              Atomic Origin
 NLMO      Total    Paramagnetic  Diamagnetic   Paramagnetic  Diamagnetic
    1      -0.0726       -0.2267       0.1541        -1.0676       0.9951
    4      -0.1226       -1.1515       1.0289        -1.0155       0.8929
    6       1.0386        1.2982      -0.2596         0.0184       1.0202
    9       1.2786        0.4717       0.8069         0.3250       0.9536
   10      -0.0232        0.1045      -0.1277        -1.5886       1.5654
   20      26.2292        0.0907      26.1385         0.4853      25.7440
   21       1.9963        1.6834       0.3130         0.2877       1.7086
 Sum       30.3244        2.2704      28.0540        -2.5553      32.8797

 Contributions to Isotropic shielding for atom   23 (    32.5144 ppm):
                         Standard Origin              Atomic Origin
 NLMO      Total    Paramagnetic  Diamagnetic   Paramagnetic  Diamagnetic
    6       1.1255        1.0077       0.1178         0.0554       1.0701
    9       1.4808        0.3352       1.1456         0.5767       0.9041
   20       1.9504        1.7702       0.1803         0.1577       1.7927
   21      26.4857        0.0906      26.3951         0.4428      26.0430
 Sum       31.0424        3.2037      27.8387         1.2326      29.8098

 Contributions to Isotropic shielding for atom   24 (    34.9194 ppm):
                         Standard Origin              Atomic Origin
 NLMO      Total    Paramagnetic  Diamagnetic   Paramagnetic  Diamagnetic
   10       1.5745        2.1965      -0.6220         0.8176       0.7568
   11      -0.0186       -0.1439       0.1254        -1.1692       1.1506
   22      22.9214       -0.6291      23.5505        -0.2117      23.1332
   26      -0.4820       -1.2484       0.7664        -0.6267       0.1447
   29      -0.3011       -1.1483       0.8472        -0.6235       0.3224
   43       3.9464        0.8329       3.1135         2.0150       1.9315
   44       5.5412        2.5164       3.0248         2.2899       3.2512
 Sum       33.1818        2.3760      30.8059         2.4915      30.6904

 Contributions to Isotropic shielding for atom   25 (    32.3976 ppm):
                         Standard Origin              Atomic Origin
 NLMO      Total    Paramagnetic  Diamagnetic   Paramagnetic  Diamagnetic
   16       1.6529        0.2148       1.4380         0.5263       1.1266
   23       0.9495        1.6658      -0.7163        -0.1576       1.1071
   24       0.8277        2.0904      -1.2626        -0.1838       1.0115
   25      26.5090       -0.1968      26.7058         0.4427      26.0663
   31       0.2125       -0.5388       0.7512        -0.7945       1.0070
 Sum       30.1516        3.2354      26.9162        -0.1669      30.3185

 Contributions to Isotropic shielding for atom   26 (    32.9911 ppm):
                         Standard Origin              Atomic Origin
 NLMO      Total    Paramagnetic  Diamagnetic   Paramagnetic  Diamagnetic
   22      -0.2797       -0.6115       0.3319        -1.1060       0.8263
   23       1.5211       -0.6394       2.1606         0.6040       0.9171
   26      26.3653        0.2998      26.0654         0.3818      25.9835
   27       2.1311        0.4352       1.6959         0.3037       1.8274
   28       1.9875        1.9487       0.0388         0.1302       1.8572
 Sum       31.7254        1.4328      30.2926         0.3137      31.4116

 Contributions to Isotropic shielding for atom   27 (    32.3370 ppm):
                         Standard Origin              Atomic Origin
 NLMO      Total    Paramagnetic  Diamagnetic   Paramagnetic  Diamagnetic
   12      -0.0603        0.0356      -0.0959        -1.0646       1.0043
   23       1.4616       -0.5434       2.0050         0.4516       1.0100
   26       2.1022        0.3357       1.7665         0.2659       1.8364
   27      26.1900        0.2277      25.9623         0.3780      25.8120
   28       1.9008        2.0066      -0.1058         0.0287       1.8721
 Sum       31.5943        2.0622      29.5321         0.0595      31.5348

 Contributions to Isotropic shielding for atom   28 (    32.6493 ppm):
                         Standard Origin              Atomic Origin
 NLMO      Total    Paramagnetic  Diamagnetic   Paramagnetic  Diamagnetic
   23       1.1450        0.9073       0.2377         0.1159       1.0291
   24      -0.1633        0.5204      -0.6837        -1.1388       0.9755
   26       2.0003        1.5006       0.4997         0.1291       1.8712
   27       2.0477        1.7563       0.2914         0.1568       1.8909
   28      26.3595       -0.0400      26.3995         0.4185      25.9410
 Sum       31.3892        4.6446      26.7446        -0.3185      31.7077

 Contributions to Isotropic shielding for atom   29 (    33.0451 ppm):
                         Standard Origin              Atomic Origin
 NLMO      Total    Paramagnetic  Diamagnetic   Paramagnetic  Diamagnetic
    8      -0.1301        0.1181      -0.2483        -1.0958       0.9657
   10      -0.1048        0.1873      -0.2921        -1.1245       1.0197
   23      -0.1360        0.2188      -0.3548        -1.0332       0.8972
   24       1.5719       -1.0530       2.6249         0.6351       0.9368
   29      26.4923        0.2970      26.1953         0.3846      26.1077
   30       2.0646        0.7255       1.3391         0.2544       1.8102
   31       1.9337        1.9880      -0.0543         0.0835       1.8502
 Sum       31.6915        2.4817      29.2099        -1.8960      33.5876

 Contributions to Isotropic shielding for atom   30 (    32.5801 ppm):
                         Standard Origin              Atomic Origin
 NLMO      Total    Paramagnetic  Diamagnetic   Paramagnetic  Diamagnetic
   16      -0.0406        0.1096      -0.1502        -1.0226       0.9819
   24       1.5298       -0.6847       2.2145         0.5044       1.0253
   29       2.0606        0.6253       1.4353         0.2566       1.8040
   30      26.3137        0.2620      26.0516         0.4139      25.8998
   31       1.9054        2.2601      -0.3547         0.0578       1.8476
 Sum       31.7688        2.5723      29.1965         0.2102      31.5587

 Contributions to Isotropic shielding for atom   31 (    32.4807 ppm):
                         Standard Origin              Atomic Origin
 NLMO      Total    Paramagnetic  Diamagnetic   Paramagnetic  Diamagnetic
   23      -0.1577        0.6721      -0.8298        -1.1038       0.9461
   24       1.2320        0.4784       0.7536         0.2072       1.0248
   29       1.9615        1.5671       0.3944         0.1163       1.8452
   30       1.9540        1.9402       0.0137         0.1004       1.8536
   31      26.2998       -0.0018      26.3016         0.4451      25.8547
 Sum       31.2896        4.6560      26.6336        -0.2348      31.5244
 
 1\1\GINC-COMPUTE-10-5\SP\RHF\STO-3G\C10H20O1\YTSAI.IQUIR\03-Aug-2021\0
 \\# rhf/STO-3G nmr pop=nbo\\comment\\0,1\C,0,2.21552438,1.205648956,-1
 .745302529\C,0,0.757841082,0.928922074,-2.12250615\C,0,0.13841986,-1.0
 23419333,-0.538397782\C,0,-0.389546484,1.373686482,0.113989466\C,0,-0.
 848553962,-0.094249078,0.202043304\C,0,-0.210269158,1.820610272,-1.336
 471746\C,0,0.379360283,-0.555031155,-1.980742135\O,0,1.391118334,-1.10
 4239294,0.126648807\C,0,-1.213742643,-0.496727648,1.662874119\C,0,-0.1
 5207809,-0.201213196,2.726133296\C,0,-1.657732321,-1.959210001,1.76386
 888\H,0,2.477968683,2.243104399,-1.980103298\H,0,2.413808692,1.0522401
 27,-0.681629655\H,0,2.892022529,0.558139672,-2.313034591\H,0,0.6617417
 15,1.189990058,-3.185101981\H,0,-0.26837823,-2.039931896,-0.592282331\
 H,0,0.552512776,1.519165165,0.653400131\H,0,-1.132787907,2.022840763,0
 .592634018\H,0,-1.793358473,-0.156593952,-0.36025301\H,0,0.128852106,2
 .863091085,-1.360518095\H,0,-1.189327055,1.802571517,-1.832754727\H,0,
 1.15698842,-1.173390987,-2.446082349\H,0,-0.543299209,-0.724276136,-2.
 551653371\H,0,1.315710947,-1.790478652,0.810394837\H,0,-2.088997371,0.
 110957859,1.934788085\H,0,0.76618229,-0.771443589,2.572691045\H,0,0.10
 2798443,0.861879531,2.757512429\H,0,-0.531206321,-0.463182252,3.720809
 211\H,0,-0.819492886,-2.648692226,1.622527864\H,0,-2.423953296,-2.1881
 31994,1.015888548\H,0,-2.088127134,-2.162636572,2.750629709\\Version=E
 M64L-G09RevC.01\State=1-A\HF=-459.6155755\RMSD=7.247e-09\Dipole=-0.470
 8045,-0.2672988,0.127071\Quadrupole=-1.8550664,1.2730521,0.5820144,-0.
 0870238,0.4068214,-0.6467579\PG=C01 [X(C10H20O1)]\\@


 WE'RE IN THE POSITION OF A VISITOR FROM ANOTHER
 DIMENSION WHO COMES TO EARTH AND SEES A CHESS MATCH.
 ASSUMING HE KNOWS IT'S A GAME, HE'S GOT TWO PROBLEMS:
 FIRST, FIGURE OUT THE RULES, AND SECOND, FIGURE OUT HOW TO WIN.
 NINETY PERCENT OF SCIENCE (INCLUDING VIRTUALLY ALL OF CHEMISRY)
 IS IN THAT SECOND CATEGORY.  THEY'RE TRYING TO APPLY
 THE LAWS THAT ARE ALREADY KNOWN.

                     -- SHELDON GLASHOW, 1979
 Job cpu time:  0 days  0 hours  0 minutes 24.3 seconds.
 File lengths (MBytes):  RWF=      5 Int=      0 D2E=      0 Chk=      1 Scr=      1
 Normal termination of Gaussian 09 at Tue Aug  3 16:34:28 2021.
