 Entering Gaussian System, Link 0=g09
 Input=/home/ytsai.iquir/menthol/02_menthol_M0001_MMFF_NMR_rhf_STO-3G_nbo.gjc
 Output=/home/ytsai.iquir/menthol/02_menthol_M0001_MMFF_NMR_rhf_STO-3G_nbo.log
 Initial command:
 /share/apps/Gaussian09/EM64T.SSE4.2-enabled/g09/l1.exe /tmp/Gau-13395.inp -scrdir=/tmp/
 Entering Link 1 = /share/apps/Gaussian09/EM64T.SSE4.2-enabled/g09/l1.exe PID=     13396.
  
 Copyright (c) 1988,1990,1992,1993,1995,1998,2003,2009,2011,
            Gaussian, Inc.  All Rights Reserved.
  
 This is part of the Gaussian(R) 09 program.  It is based on
 the Gaussian(R) 03 system (copyright 2003, Gaussian, Inc.),
 the Gaussian(R) 98 system (copyright 1998, Gaussian, Inc.),
 the Gaussian(R) 94 system (copyright 1995, Gaussian, Inc.),
 the Gaussian 92(TM) system (copyright 1992, Gaussian, Inc.),
 the Gaussian 90(TM) system (copyright 1990, Gaussian, Inc.),
 the Gaussian 88(TM) system (copyright 1988, Gaussian, Inc.),
 the Gaussian 86(TM) system (copyright 1986, Carnegie Mellon
 University), and the Gaussian 82(TM) system (copyright 1983,
 Carnegie Mellon University). Gaussian is a federally registered
 trademark of Gaussian, Inc.
  
 This software contains proprietary and confidential information,
 including trade secrets, belonging to Gaussian, Inc.
  
 This software is provided under written license and may be
 used, copied, transmitted, or stored only in accord with that
 written license.
  
 The following legend is applicable only to US Government
 contracts under FAR:
  
                    RESTRICTED RIGHTS LEGEND
  
 Use, reproduction and disclosure by the US Government is
 subject to restrictions as set forth in subparagraphs (a)
 and (c) of the Commercial Computer Software - Restricted
 Rights clause in FAR 52.227-19.
  
 Gaussian, Inc.
 340 Quinnipiac St., Bldg. 40, Wallingford CT 06492
  
  
 ---------------------------------------------------------------
 Warning -- This program may not be used in any manner that
 competes with the business of Gaussian, Inc. or will provide
 assistance to any competitor of Gaussian, Inc.  The licensee
 of this program is prohibited from giving any competitor of
 Gaussian, Inc. access to this program.  By using this program,
 the user acknowledges that Gaussian, Inc. is engaged in the
 business of creating and licensing software in the field of
 computational chemistry and represents and warrants to the
 licensee that it is not a competitor of Gaussian, Inc. and that
 it will not use this program in any manner prohibited above.
 ---------------------------------------------------------------
  

 Cite this work as:
 Gaussian 09, Revision C.01,
 M. J. Frisch, G. W. Trucks, H. B. Schlegel, G. E. Scuseria, 
 M. A. Robb, J. R. Cheeseman, G. Scalmani, V. Barone, B. Mennucci, 
 G. A. Petersson, H. Nakatsuji, M. Caricato, X. Li, H. P. Hratchian, 
 A. F. Izmaylov, J. Bloino, G. Zheng, J. L. Sonnenberg, M. Hada, 
 M. Ehara, K. Toyota, R. Fukuda, J. Hasegawa, M. Ishida, T. Nakajima, 
 Y. Honda, O. Kitao, H. Nakai, T. Vreven, J. A. Montgomery, Jr., 
 J. E. Peralta, F. Ogliaro, M. Bearpark, J. J. Heyd, E. Brothers, 
 K. N. Kudin, V. N. Staroverov, T. Keith, R. Kobayashi, J. Normand, 
 K. Raghavachari, A. Rendell, J. C. Burant, S. S. Iyengar, J. Tomasi, 
 M. Cossi, N. Rega, J. M. Millam, M. Klene, J. E. Knox, J. B. Cross, 
 V. Bakken, C. Adamo, J. Jaramillo, R. Gomperts, R. E. Stratmann, 
 O. Yazyev, A. J. Austin, R. Cammi, C. Pomelli, J. W. Ochterski, 
 R. L. Martin, K. Morokuma, V. G. Zakrzewski, G. A. Voth, 
 P. Salvador, J. J. Dannenberg, S. Dapprich, A. D. Daniels, 
 O. Farkas, J. B. Foresman, J. V. Ortiz, J. Cioslowski, 
 and D. J. Fox, Gaussian, Inc., Wallingford CT, 2010.
 
 ******************************************
 Gaussian 09:  EM64L-G09RevC.01 23-Sep-2011
                24-May-2020 
 ******************************************
 %nprocshared=4
 Will use up to    4 processors via shared memory.
 ------------------------
 # rhf/STO-3G nmr pop=nbo
 ------------------------
 1/38=1/1;
 2/12=2,17=6,18=5,40=1/2;
 3/6=3,11=1,16=1,25=1,30=1,116=1/1,2,8,3;
 4//1;
 5/5=2,38=5/2;
 8/6=1,10=90,11=11/1;
 10/13=100,45=16/2;
 6/7=2,8=2,9=2,10=2,28=1,64=1/1,7;
 99/9=1/99;
 -------
 comment
 -------
 Charge =  0 Multiplicity = 1
 Symbolic Z-Matrix:
 6                     2.43774   0.96245  -1.72585 
 6                     0.97377   0.72885  -2.10599 
 6                     0.27571  -1.11334  -0.43893 
 6                    -0.17032   1.32389   0.10094 
 6                    -0.66962  -0.12557   0.28466 
 6                     0.03556   1.68745  -1.36924 
 6                     0.52814  -0.7256   -1.90049 
 8                     1.51129  -1.20558   0.26395 
 6                    -0.86529  -0.47127   1.79565 
 6                    -1.33627  -1.91689   2.00261 
 6                    -1.86975   0.4662    2.4799 
 1                     3.09143   0.25757  -2.25027 
 1                     2.74678   1.97404  -2.01139 
 1                     2.61844   0.85815  -0.65315 
 1                     0.89678   0.94596  -3.17993 
 1                    -0.16838  -2.11488  -0.4361 
 1                     0.7611    1.47536   0.65907 
 1                    -0.89922   2.0314    0.51027 
 1                    -1.65098  -0.19678  -0.2063 
 1                     0.40975   2.71559  -1.44327 
 1                    -0.94148   1.67833  -1.87004 
 1                     1.27328  -1.39864  -2.34214 
 1                    -0.40515  -0.87759  -2.45869 
 1                     2.06869  -1.85053  -0.20369 
 1                     0.09473  -0.35685   2.31555 
 1                    -2.24751  -2.12164   1.43069 
 1                    -0.56975  -2.63652   1.70051 
 1                    -1.55024  -2.11123   3.05944 
 1                    -2.82513   0.48164   1.94481 
 1                    -1.48916   1.48997   2.53799 
 1                    -2.06492   0.14605   3.50944 
 
                          Input orientation:                          
 ---------------------------------------------------------------------
 Center     Atomic      Atomic             Coordinates (Angstroms)
 Number     Number       Type             X           Y           Z
 ---------------------------------------------------------------------
      1          6           0        2.437738    0.962448   -1.725845
      2          6           0        0.973767    0.728850   -2.105990
      3          6           0        0.275705   -1.113345   -0.438928
      4          6           0       -0.170318    1.323892    0.100944
      5          6           0       -0.669618   -0.125569    0.284665
      6          6           0        0.035564    1.687446   -1.369240
      7          6           0        0.528139   -0.725596   -1.900494
      8          8           0        1.511286   -1.205576    0.263950
      9          6           0       -0.865288   -0.471269    1.795651
     10          6           0       -1.336265   -1.916888    2.002612
     11          6           0       -1.869753    0.466195    2.479896
     12          1           0        3.091425    0.257570   -2.250269
     13          1           0        2.746783    1.974038   -2.011393
     14          1           0        2.618439    0.858155   -0.653154
     15          1           0        0.896783    0.945963   -3.179932
     16          1           0       -0.168375   -2.114877   -0.436100
     17          1           0        0.761105    1.475355    0.659066
     18          1           0       -0.899225    2.031401    0.510270
     19          1           0       -1.650981   -0.196782   -0.206304
     20          1           0        0.409750    2.715587   -1.443267
     21          1           0       -0.941485    1.678330   -1.870043
     22          1           0        1.273278   -1.398637   -2.342137
     23          1           0       -0.405154   -0.877590   -2.458689
     24          1           0        2.068689   -1.850526   -0.203688
     25          1           0        0.094731   -0.356848    2.315549
     26          1           0       -2.247514   -2.121635    1.430685
     27          1           0       -0.569747   -2.636524    1.700507
     28          1           0       -1.550244   -2.111229    3.059437
     29          1           0       -2.825135    0.481642    1.944813
     30          1           0       -1.489158    1.489972    2.537989
     31          1           0       -2.064921    0.146047    3.509437
 ---------------------------------------------------------------------
                    Distance matrix (angstroms):
                    1          2          3          4          5
     1  C    0.000000
     2  C    1.530454   0.000000
     3  C    3.261818   2.580710   0.000000
     4  C    3.204646   2.556083   2.535847   0.000000
     5  C    3.857667   3.024232   1.546908   1.544018   0.000000
     6  C    2.534409   1.530338   2.961010   1.528397   2.553372
     7  C    2.554714   1.535001   1.533052   2.948558   2.563118
     8  O    3.085115   3.106050   1.424501   3.041804   2.433760
     9  C    5.036513   4.477187   2.589878   2.564686   1.562330
    10  C    6.036147   5.405256   3.034015   3.934263   2.569939
    11  C    6.040613   5.402309   3.951895   3.046824   2.570904
    12  H    1.095071   2.174258   3.617823   4.159833   4.551718
    13  H    1.095609   2.168646   4.255678   3.659800   4.620825
    14  H    1.092793   2.198271   3.069381   2.926216   3.557884
    15  H    2.118769   1.098370   3.484192   3.470689   3.950345
    16  H    4.233816   3.489957   1.095574   3.480452   2.174417
    17  H    2.960063   2.871938   2.853519   1.096353   2.179473
    18  H    4.156704   3.471246   3.488676   1.095181   2.180856
    19  H    4.513362   3.369703   2.146234   2.144577   1.099634
    20  H    2.695567   2.168972   3.960730   2.158213   3.496134
    21  H    3.457228   2.150668   3.364980   2.145953   2.823248
    22  H    2.703795   2.161405   2.167660   3.932528   3.506513
    23  H    3.464799   2.146268   2.144431   3.384285   2.856828
    24  H    3.219625   3.386855   1.952835   3.896521   3.272963
    25  H    4.854183   4.636966   2.862199   2.792779   2.182249
    26  H    6.436369   5.568661   3.298294   4.237288   2.790591
    27  H    5.808396   5.310141   2.758994   4.289877   2.884351
    28  H    6.946252   6.412356   4.070432   4.738874   3.523877
    29  H    6.434496   5.558936   4.223910   3.340253   2.787660
    30  H    5.820573   5.311482   4.330593   2.775988   2.891209
    31  H    6.953318   6.411420   4.759641   4.073655   3.524174
                    6          7          8          9         10
     6  C    0.000000
     7  C    2.519452   0.000000
     8  O    3.635195   2.425238   0.000000
     9  C    3.935494   3.958258   2.921201   0.000000
    10  C    5.122746   4.486582   3.411372   1.534428   0.000000
    11  C    4.465147   5.134011   4.374547   1.534921   2.488272
    12  H    3.486983   2.767562   3.310428   5.705809   6.513042
    13  H    2.800929   3.496098   4.100437   5.789660   6.922631
    14  H    2.805663   2.904045   2.515125   4.460982   5.513043
    15  H    2.137780   2.137047   4.106953   5.465333   6.327811
    16  H    3.920459   2.135341   2.034246   2.857944   2.711177
    17  H    2.164582   3.383757   2.811811   2.779626   4.208490
    18  H    2.127132   3.930672   4.043421   2.813665   4.243474
    19  H    2.783373   2.810425   3.352423   2.168060   2.817290
    20  H    1.096617   3.473444   4.416276   4.719360   6.031789
    21  H    1.097957   2.817726   4.345909   4.250164   5.298953
    22  H    3.464445   1.096934   2.624045   4.749186   5.094619
    23  H    2.821443   1.098052   3.345606   4.298398   4.674432
    24  H    4.243743   2.553020   0.972288   3.808927   4.057817
    25  H    4.214298   4.254273   2.633633   1.097735   2.139954
    26  H    5.249869   4.555209   4.040917   2.183452   1.095170
    27  H    5.337272   4.221872   2.905513   2.187403   1.093936
    28  H    6.046313   5.553428   4.243573   2.180777   1.095643
    29  H    4.540981   5.242924   4.947378   2.184328   2.823654
    30  H    4.198834   5.355218   4.630323   2.187863   3.452057
    31  H    5.530772   6.062267   5.014910   2.181115   2.656532
                   11         12         13         14         15
    11  C    0.000000
    12  H    6.857936   0.000000
    13  H    6.614958   1.766947   0.000000
    14  H    5.487577   1.770648   1.762521   0.000000
    15  H    6.318035   2.480849   2.417627   3.058826   0.000000
    16  H    4.249665   4.421087   5.262976   4.080730   4.246401
    17  H    3.354883   3.921432   3.364960   2.356384   3.877702
    18  H    2.696520   5.166463   4.433447   3.886389   4.245164
    19  H    2.775441   5.184076   5.226005   4.420465   4.079146
    20  H    5.064297   3.726189   2.516820   2.992096   2.526812
    21  H    4.610089   4.292726   3.702802   3.850527   2.373057
    22  H    6.050475   2.461122   3.695341   3.123337   2.518094
    23  H    5.323573   3.682132   4.273939   3.926179   2.353843
    24  H    5.299070   3.111037   4.284261   2.800213   4.248734
    25  H    2.136261   5.495851   5.584696   4.081486   5.704465
    26  H    2.817874   6.907555   7.318842   6.074457   6.368246
    27  H    3.453163   6.114621   6.784899   5.283657   6.229255
    28  H    2.661028   7.439709   7.801741   6.322854   7.366417
    29  H    1.095129   7.256349   6.994646   6.043483   6.350692
    30  H    1.093776   6.740028   6.234933   5.239746   6.219589
    31  H    1.095691   7.731401   7.548087   6.306197   7.359295
                   16         17         18         19         20
    16  H    0.000000
    17  H    3.866922   0.000000
    18  H    4.315249   1.757277   0.000000
    19  H    2.435162   3.059913   2.458335   0.000000
    20  H    4.968098   2.466056   2.449048   3.776053   0.000000
    21  H    4.128233   3.055553   2.406727   2.605274   1.756097
    22  H    2.494863   4.186810   4.961971   3.815433   4.298894
    23  H    2.382816   4.076384   4.185815   2.662483   3.821789
    24  H    2.264586   3.676357   4.938380   4.070727   5.013783
    25  H    3.275891   2.558312   3.154475   3.071299   4.864956
    26  H    2.794235   4.752423   4.462371   2.596276   6.222490
    27  H    2.235688   4.445595   4.828534   3.279839   6.283934
    28  H    3.758770   4.895682   4.907490   3.786862   6.885788
    29  H    4.412372   3.937223   2.858110   2.542873   5.189805
    30  H    4.856398   2.931595   2.180094   3.225286   4.578033
    31  H    4.927060   4.228250   3.729398   3.754412   6.103754
                   21         22         23         24         25
    21  H    0.000000
    22  H    3.820441   0.000000
    23  H    2.677102   1.761309   0.000000
    24  H    4.928560   2.325908   3.485905   0.000000
    25  H    4.768110   4.916130   4.828499   3.531874   0.000000
    26  H    5.200024   5.210844   4.479863   4.623233   3.063262
    27  H    5.612930   4.612166   4.518833   3.347401   2.452903
    28  H    6.247489   6.136535   5.769125   4.879818   2.517373
    29  H    4.419652   6.221766   5.205252   5.831344   3.060413
    30  H    4.445916   6.307990   5.634465   5.597677   2.443139
    31  H    5.705156   6.911624   6.278629   5.904264   2.518407
                   26         27         28         29         30
    26  H    0.000000
    27  H    1.775618   0.000000
    28  H    1.771758   1.756132   0.000000
    29  H    2.715700   3.856089   3.096888   0.000000
    30  H    3.852912   4.309833   3.639270   1.775787   0.000000
    31  H    3.081709   3.640121   2.358535   1.771609   1.755377
                   31
    31  H    0.000000
 Stoichiometry    C10H20O
 Framework group  C1[X(C10H20O)]
 Deg. of freedom    87
 Full point group                 C1      NOp   1
 Largest Abelian subgroup         C1      NOp   1
 Largest concise Abelian subgroup C1      NOp   1
                         Standard orientation:                         
 ---------------------------------------------------------------------
 Center     Atomic      Atomic             Coordinates (Angstroms)
 Number     Number       Type             X           Y           Z
 ---------------------------------------------------------------------
      1          6           0       -2.923860   -0.009257   -0.949297
      2          6           0       -2.333036    0.295253    0.429285
      3          6           0       -0.148583   -1.078323    0.390253
      4          6           0       -0.118582    1.374502   -0.252606
      5          6           0        0.689909    0.221587    0.380734
      6          6           0       -1.480564    1.566076    0.413954
      7          6           0       -1.536497   -0.881033    1.010753
      8          8           0       -0.272012   -1.585782   -0.935060
      9          6           0        2.073317    0.044772   -0.323391
     10          6           0        2.882979   -1.113907    0.273583
     11          6           0        2.927716    1.317892   -0.251629
     12          1           0       -3.516721   -0.929558   -0.922056
     13          1           0       -3.588892    0.802399   -1.264424
     14          1           0       -2.159443   -0.121543   -1.722120
     15          1           0       -3.186786    0.473999    1.096800
     16          1           0        0.368925   -1.844355    0.978183
     17          1           0       -0.247910    1.198477   -1.326980
     18          1           0        0.426036    2.319479   -0.153450
     19          1           0        0.878738    0.493722    1.429295
     20          1           0       -2.021328    2.379175   -0.085057
     21          1           0       -1.318267    1.893802    1.449216
     22          1           0       -2.124657   -1.801532    0.910685
     23          1           0       -1.406029   -0.704813    2.086692
     24          1           0       -0.781950   -2.412256   -0.887648
     25          1           0        1.907742   -0.178005   -1.385454
     26          1           0        3.004203   -0.995443    1.355557
     27          1           0        2.404183   -2.078893    0.083185
     28          1           0        3.881569   -1.165103   -0.174335
     29          1           0        3.044485    1.658804    0.782513
     30          1           0        2.487808    2.130875   -0.836339
     31          1           0        3.927592    1.141665   -0.663615
 ---------------------------------------------------------------------
 Rotational constants (GHZ):      1.8484564      0.7462719      0.6291968
 Standard basis: STO-3G (5D, 7F)
 There are    75 symmetry adapted basis functions of A   symmetry.
 Integral buffers will be    131072 words long.
 Raffenetti 1 integral format.
 Two-electron integral symmetry is turned on.
    75 basis functions,   225 primitive gaussians,    75 cartesian basis functions
    44 alpha electrons       44 beta electrons
       nuclear repulsion energy       700.0652448745 Hartrees.
 NAtoms=   31 NActive=   31 NUniq=   31 SFac= 1.00D+00 NAtFMM=   60 NAOKFM=F Big=F
 One-electron integrals computed using PRISM.
 NBasis=    75 RedAO= T  NBF=    75
 NBsUse=    75 1.00D-06 NBFU=    75
 Harris functional with IExCor=  205 diagonalized for initial guess.
 ExpMin= 1.69D-01 ExpMax= 1.31D+02 ExpMxC= 1.31D+02 IAcc=1 IRadAn=         1 AccDes= 0.00D+00
 HarFok:  IExCor=  205 AccDes= 0.00D+00 IRadAn=         1 IDoV= 1
 ScaDFX=  1.000000  1.000000  1.000000  1.000000
 FoFCou: FMM=F IPFlag=           0 FMFlag=      100000 FMFlg1=           0
         NFxFlg=           0 DoJE=T BraDBF=F KetDBF=T FulRan=T
         Omega=  0.000000  0.000000  1.000000  0.000000  0.000000 ICntrl=     500 IOpCl=  0
         NMat0=    1 NMatS0=    1 NMatT0=    0 NMatD0=    1 NMtDS0=    0 NMtDT0=    0
         I1Cent=           4 NGrid=           0.
 Petite list used in FoFCou.
 Initial guess orbital symmetries:
       Occupied  (A) (A) (A) (A) (A) (A) (A) (A) (A) (A) (A) (A)
                 (A) (A) (A) (A) (A) (A) (A) (A) (A) (A) (A) (A)
                 (A) (A) (A) (A) (A) (A) (A) (A) (A) (A) (A) (A)
                 (A) (A) (A) (A) (A) (A) (A) (A)
       Virtual   (A) (A) (A) (A) (A) (A) (A) (A) (A) (A) (A) (A)
                 (A) (A) (A) (A) (A) (A) (A) (A) (A) (A) (A) (A)
                 (A) (A) (A) (A) (A) (A) (A)
 The electronic state of the initial guess is 1-A.
 Requested convergence on RMS density matrix=1.00D-08 within 128 cycles.
 Requested convergence on MAX density matrix=1.00D-06.
 Requested convergence on             energy=1.00D-06.
 No special actions if energy rises.
 Keep R1 ints in memory in canonical form, NReq=4898789.
 SCF Done:  E(RHF) =  -459.619625318     A.U. after   10 cycles
             Convg  =    0.7323D-08             -V/T =  2.0090
 Range of M.O.s used for correlation:     1    75
 NBasis=    75 NAE=    44 NBE=    44 NFC=     0 NFV=     0
 NROrb=     75 NOA=    44 NOB=    44 NVA=    31 NVB=    31
          Differentiating once with respect to magnetic field using GIAOs.
          Electric field/nuclear overlap derivatives assumed to be zero.
          Keep R3 ints in memory in canonical form, NReq=4863575.
 FoFCou: FMM=F IPFlag=           0 FMFlag=           0 FMFlg1=           0
         NFxFlg=           0 DoJE=F BraDBF=F KetDBF=T FulRan=T
         Omega=  0.000000  0.000000  1.000000  0.000000  0.000000 ICntrl=    6100 IOpCl=  0
         NMat0=    1 NMatS0=    1 NMatT0=    0 NMatD0=    1 NMtDS0=    0 NMtDT0=    0
         I1Cent=           7 NGrid=          31.
 Symmetry not used in FoFCou.
          There are     3 degrees of freedom in the 1st order CPHF.  IDoFFX=0.
      3 vectors produced by pass  0 Test12= 4.55D-14 3.33D-08 XBig12= 7.32D+00 4.98D-01.
 AX will form     3 AO Fock derivatives at one time.
      3 vectors produced by pass  1 Test12= 4.55D-14 3.33D-08 XBig12= 1.15D-02 1.46D-02.
      3 vectors produced by pass  2 Test12= 4.55D-14 3.33D-08 XBig12= 8.06D-05 2.51D-03.
      3 vectors produced by pass  3 Test12= 4.55D-14 3.33D-08 XBig12= 2.45D-06 3.43D-04.
      3 vectors produced by pass  4 Test12= 4.55D-14 3.33D-08 XBig12= 2.35D-08 2.77D-05.
      3 vectors produced by pass  5 Test12= 4.55D-14 3.33D-08 XBig12= 2.91D-10 2.00D-06.
      3 vectors produced by pass  6 Test12= 4.55D-14 3.33D-08 XBig12= 2.16D-12 1.95D-07.
 Inverted reduced A of dimension    21 with in-core refinement.
 Calculating GIAO nuclear magnetic shielding tensors.
 SCF GIAO Magnetic shielding tensor (ppm):
      1  C    Isotropic =   222.5031   Anisotropy =    24.7202
   XX=   218.7809   YX=     1.3973   ZX=    11.7990
   XY=     2.9063   YY=   219.7355   ZY=     1.8464
   XZ=    15.7223   YZ=     2.0760   ZZ=   228.9929
   Eigenvalues:   209.1689   219.3572   238.9833
      2  C    Isotropic =   216.9060   Anisotropy =     3.4447
   XX=   215.9155   YX=     0.0373   ZX=     3.7742
   XY=    -0.1299   YY=   218.2951   ZY=    -0.4897
   XZ=     2.0757   YZ=    -0.0063   ZZ=   216.5074
   Eigenvalues:   213.2681   218.2474   219.2025
      3  C    Isotropic =   189.9961   Anisotropy =    37.0572
   XX=   182.3499   YX=     5.5499   ZX=     2.6031
   XY=     5.2223   YY=   181.4174   ZY=    15.8771
   XZ=     4.7005   YZ=    15.2357   ZZ=   206.2209
   Eigenvalues:   172.7189   182.5685   214.7009
      4  C    Isotropic =   219.7091   Anisotropy =    16.1865
   XX=   226.1427   YX=    -5.9483   ZX=    -0.8470
   XY=    -7.7047   YY=   218.8996   ZY=    -4.8576
   XZ=     0.1406   YZ=    -3.9538   ZZ=   214.0849
   Eigenvalues:   210.3587   218.2685   230.5001
      5  C    Isotropic =   208.7616   Anisotropy =    16.6392
   XX=   218.7573   YX=     0.5363   ZX=    -2.2869
   XY=    -1.6584   YY=   204.8889   ZY=     2.1890
   XZ=    -6.1645   YZ=     0.9156   ZZ=   202.6384
   Eigenvalues:   201.0949   205.3354   219.8543
      6  C    Isotropic =   216.8404   Anisotropy =    11.8382
   XX=   221.7654   YX=     3.7568   ZX=    -0.3135
   XY=     4.1070   YY=   219.5217   ZY=     3.1559
   XZ=    -1.7385   YZ=    -0.2841   ZZ=   209.2341
   Eigenvalues:   208.8310   216.9577   224.7325
      7  C    Isotropic =   214.3993   Anisotropy =    10.9295
   XX=   219.8038   YX=    -3.4144   ZX=    -2.1062
   XY=    -2.7381   YY=   216.5138   ZY=    -0.9581
   XZ=    -1.1783   YZ=    -1.6469   ZZ=   206.8801
   Eigenvalues:   206.3803   215.1319   221.6856
      8  O    Isotropic =   355.8315   Anisotropy =    96.7736
   XX=   360.6474   YX=    41.0821   ZX=     2.2472
   XY=    41.7914   YY=   390.7618   ZY=     5.7786
   XZ=   -21.8338   YZ=   -10.5882   ZZ=   316.0854
   Eigenvalues:   313.1564   333.9909   420.3473
      9  C    Isotropic =   213.2368   Anisotropy =    16.8835
   XX=   223.0741   YX=    -3.4174   ZX=    -3.5427
   XY=    -1.2202   YY=   212.4538   ZY=    -1.2730
   XZ=    -5.8497   YZ=    -1.5504   ZZ=   204.1824
   Eigenvalues:   202.7007   212.5172   224.4925
     10  C    Isotropic =   221.3417   Anisotropy =    24.6802
   XX=   223.5149   YX=   -10.2009   ZX=     2.7606
   XY=    -9.2793   YY=   226.7451   ZY=    -6.6617
   XZ=     2.1020   YZ=   -10.4246   ZZ=   213.7653
   Eigenvalues:   209.0666   217.1634   237.7952
     11  C    Isotropic =   221.1638   Anisotropy =    25.8731
   XX=   223.7597   YX=    11.2865   ZX=    -2.0372
   XY=    10.2575   YY=   230.4922   ZY=    -0.5033
   XZ=    -2.2166   YZ=     3.2585   ZZ=   209.2394
   Eigenvalues:   208.3808   216.6981   238.4125
     12  H    Isotropic =    32.7507   Anisotropy =    13.5582
   XX=    34.6737   YX=     5.7749   ZX=     3.5053
   XY=     6.3723   YY=    34.8292   ZY=     1.1935
   XZ=     3.5588   YZ=     1.7319   ZZ=    28.7491
   Eigenvalues:    26.7331    29.7294    41.7895
     13  H    Isotropic =    32.5762   Anisotropy =    14.7686
   XX=    35.0245   YX=    -5.1002   ZX=     5.8404
   XY=    -5.0415   YY=    32.1531   ZY=    -2.7012
   XZ=     5.9573   YZ=    -3.1663   ZZ=    30.5511
   Eigenvalues:    26.4080    28.8988    42.4220
     14  H    Isotropic =    32.0411   Anisotropy =     7.2611
   XX=    33.1264   YX=    -1.1334   ZX=    -0.9692
   XY=    -0.6046   YY=    26.7197   ZY=     1.5572
   XZ=    -1.1525   YZ=     1.4373   ZZ=    36.2773
   Eigenvalues:    26.4163    32.8252    36.8818
     15  H    Isotropic =    32.4736   Anisotropy =    15.2482
   XX=    37.6260   YX=    -2.1835   ZX=    -6.5327
   XY=    -2.0497   YY=    27.3681   ZY=     1.4763
   XZ=    -6.8283   YZ=     1.5621   ZZ=    32.4268
   Eigenvalues:    26.9202    27.8616    42.6391
     16  H    Isotropic =    31.8842   Anisotropy =    10.1236
   XX=    33.5305   YX=    -2.7622   ZX=     1.2393
   XY=    -2.8377   YY=    33.0714   ZY=    -4.6072
   XZ=     2.3854   YZ=    -5.4012   ZZ=    29.0507
   Eigenvalues:    25.6675    31.3518    38.6333
     17  H    Isotropic =    32.3858   Anisotropy =     9.2074
   XX=    31.1013   YX=    -0.3252   ZX=     0.7676
   XY=    -0.0254   YY=    27.9502   ZY=    -1.8566
   XZ=     0.5420   YZ=    -2.0158   ZZ=    38.1060
   Eigenvalues:    27.5927    31.0406    38.5241
     18  H    Isotropic =    32.4037   Anisotropy =    13.0111
   XX=    34.7972   YX=     3.8219   ZX=    -1.0791
   XY=     3.8695   YY=    38.5942   ZY=    -1.0093
   XZ=    -1.1848   YZ=    -0.5691   ZZ=    23.8198
   Eigenvalues:    23.6928    32.4406    41.0778
     19  H    Isotropic =    32.9271   Anisotropy =     9.2923
   XX=    33.0586   YX=     0.6505   ZX=     1.9165
   XY=     0.7884   YY=    28.1978   ZY=     2.6359
   XZ=     2.2703   YZ=     3.0242   ZZ=    37.5248
   Eigenvalues:    27.4031    32.2562    39.1220
     20  H    Isotropic =    32.3969   Anisotropy =    14.5175
   XX=    32.2041   YX=    -5.1812   ZX=     1.9338
   XY=    -5.1164   YY=    38.2007   ZY=    -2.9513
   XZ=     2.1370   YZ=    -3.3348   ZZ=    26.7860
   Eigenvalues:    25.8605    29.2550    42.0752
     21  H    Isotropic =    32.5703   Anisotropy =    13.1820
   XX=    29.2077   YX=     0.2358   ZX=    -0.3228
   XY=     0.1401   YY=    32.0213   ZY=     6.5693
   XZ=    -0.6950   YZ=     6.9102   ZZ=    36.4819
   Eigenvalues:    27.0578    29.2948    41.3583
     22  H    Isotropic =    32.9063   Anisotropy =    13.1649
   XX=    33.1306   YX=     4.9483   ZX=    -0.8325
   XY=     5.4430   YY=    37.9510   ZY=    -2.6218
   XZ=    -0.8806   YZ=    -2.0060   ZZ=    27.6371
   Eigenvalues:    27.1243    29.9116    41.6829
     23  H    Isotropic =    32.4827   Anisotropy =    12.9324
   XX=    29.0141   YX=    -0.4254   ZX=    -0.6442
   XY=    -0.4250   YY=    27.5658   ZY=    -1.4739
   XZ=    -1.1540   YZ=    -1.6149   ZZ=    40.8683
   Eigenvalues:    27.2299    29.1139    41.1044
     24  H    Isotropic =    35.2647   Anisotropy =    18.8284
   XX=    31.5125   YX=     7.6192   ZX=     0.6794
   XY=     7.0364   YY=    42.9921   ZY=     5.4834
   XZ=     0.2921   YZ=     4.1374   ZZ=    31.2893
   Eigenvalues:    27.0647    30.9124    47.8169
     25  H    Isotropic =    32.0703   Anisotropy =     9.3501
   XX=    30.7210   YX=     0.8863   ZX=    -0.2723
   XY=     0.8475   YY=    27.6947   ZY=     2.3435
   XZ=    -0.2084   YZ=     2.3005   ZZ=    37.7951
   Eigenvalues:    26.9713    30.9358    38.3037
     26  H    Isotropic =    32.6743   Anisotropy =    11.2311
   XX=    31.4524   YX=    -1.7872   ZX=     3.7337
   XY=    -1.8481   YY=    28.8405   ZY=    -2.0956
   XZ=     3.9444   YZ=    -1.9908   ZZ=    37.7301
   Eigenvalues:    27.9075    29.9537    40.1617
     27  H    Isotropic =    32.1298   Anisotropy =    10.4025
   XX=    32.5099   YX=     0.5907   ZX=     0.5236
   XY=     0.4549   YY=    38.9850   ZY=     0.8392
   XZ=     0.4905   YZ=     0.5466   ZZ=    24.8943
   Eigenvalues:    24.8302    32.4944    39.0647
     28  H    Isotropic =    32.4690   Anisotropy =    14.3318
   XX=    39.9176   YX=    -3.6354   ZX=    -3.8201
   XY=    -3.8630   YY=    30.0817   ZY=     0.0873
   XZ=    -3.4846   YZ=     0.1175   ZZ=    27.4077
   Eigenvalues:    26.1626    29.2209    42.0236
     29  H    Isotropic =    32.6610   Anisotropy =    11.3175
   XX=    31.4210   YX=     3.4381   ZX=     2.6176
   XY=     3.4211   YY=    31.9318   ZY=     4.7234
   XZ=     2.7010   YZ=     4.7044   ZZ=    34.6303
   Eigenvalues:    27.7337    30.0434    40.2060
     30  H    Isotropic =    32.2719   Anisotropy =    11.1787
   XX=    31.9336   YX=     0.1937   ZX=     0.2994
   XY=    -0.1044   YY=    36.6807   ZY=    -6.1381
   XZ=     0.0738   YZ=    -5.7055   ZZ=    28.2014
   Eigenvalues:    25.1529    31.9384    39.7243
     31  H    Isotropic =    32.4700   Anisotropy =    14.2745
   XX=    39.9893   YX=     1.6806   ZX=    -4.9228
   XY=     1.8794   YY=    29.6026   ZY=    -0.8650
   XZ=    -4.7453   YZ=    -0.8406   ZZ=    27.8181
   Eigenvalues:    26.1170    29.3066    41.9864
 End of Minotr Frequency-dependent properties file   721 does not exist.
 End of Minotr Frequency-dependent properties file   722 does not exist.

 **********************************************************************

            Population analysis using the SCF density.

 **********************************************************************

 Orbital symmetries:
       Occupied  (A) (A) (A) (A) (A) (A) (A) (A) (A) (A) (A) (A)
                 (A) (A) (A) (A) (A) (A) (A) (A) (A) (A) (A) (A)
                 (A) (A) (A) (A) (A) (A) (A) (A) (A) (A) (A) (A)
                 (A) (A) (A) (A) (A) (A) (A) (A)
       Virtual   (A) (A) (A) (A) (A) (A) (A) (A) (A) (A) (A) (A)
                 (A) (A) (A) (A) (A) (A) (A) (A) (A) (A) (A) (A)
                 (A) (A) (A) (A) (A) (A) (A)
 The electronic state is 1-A.
 Alpha  occ. eigenvalues --  -20.23675 -11.08479 -11.04386 -11.04367 -11.04142
 Alpha  occ. eigenvalues --  -11.03800 -11.03277 -11.03038 -11.02593 -11.02497
 Alpha  occ. eigenvalues --  -11.02452  -1.27891  -1.07597  -1.03335  -0.96264
 Alpha  occ. eigenvalues --   -0.94989  -0.88409  -0.87901  -0.79364  -0.78166
 Alpha  occ. eigenvalues --   -0.72272  -0.68898  -0.63623  -0.59244  -0.58545
 Alpha  occ. eigenvalues --   -0.57302  -0.55908  -0.54668  -0.54137  -0.51264
 Alpha  occ. eigenvalues --   -0.50710  -0.50423  -0.49622  -0.48476  -0.45453
 Alpha  occ. eigenvalues --   -0.44881  -0.43646  -0.42255  -0.41907  -0.41415
 Alpha  occ. eigenvalues --   -0.39658  -0.38428  -0.35994  -0.32870
 Alpha virt. eigenvalues --    0.52875   0.56101   0.58377   0.59576   0.60777
 Alpha virt. eigenvalues --    0.61894   0.62981   0.64355   0.66359   0.68165
 Alpha virt. eigenvalues --    0.69017   0.70355   0.70903   0.71332   0.72163
 Alpha virt. eigenvalues --    0.73341   0.73849   0.75371   0.76274   0.76892
 Alpha virt. eigenvalues --    0.77267   0.77791   0.78122   0.79191   0.80218
 Alpha virt. eigenvalues --    0.81420   0.82248   0.83432   0.83828   0.84611
 Alpha virt. eigenvalues --    0.84915
          Condensed to atoms (all electrons):
              1          2          3          4          5          6
     1  C    4.745374   0.364639  -0.000478  -0.001329   0.000062  -0.023753
     2  C    0.364639   4.742287  -0.019766  -0.021190  -0.003441   0.363326
     3  C   -0.000478  -0.019766   4.742612  -0.022547   0.357566  -0.004075
     4  C   -0.001329  -0.021190  -0.022547   4.755952   0.361221   0.363143
     5  C    0.000062  -0.003441   0.357566   0.361221   4.767843  -0.020815
     6  C   -0.023753   0.363326  -0.004075   0.363143  -0.020815   4.754208
     7  C   -0.023011   0.361785   0.357505  -0.004422  -0.021072  -0.023921
     8  O   -0.000827  -0.000097   0.266991  -0.000389  -0.017007   0.000054
     9  C   -0.000001   0.000001  -0.018996  -0.020699   0.359060   0.000603
    10  C    0.000000   0.000000  -0.002811   0.000594  -0.021199  -0.000004
    11  C    0.000000   0.000000   0.000567  -0.002721  -0.020828   0.000015
    12  H    0.382046  -0.020450   0.000018   0.000002  -0.000002   0.001257
    13  H    0.381819  -0.020459  -0.000010   0.000028  -0.000001  -0.001925
    14  H    0.382811  -0.019480   0.000017  -0.000354   0.000024  -0.001992
    15  H   -0.025866   0.383058   0.001194   0.001241   0.000013  -0.023467
    16  H   -0.000012   0.001193   0.376620   0.001169  -0.023052   0.000022
    17  H   -0.000396  -0.001329  -0.001482   0.381653  -0.022043  -0.022039
    18  H    0.000009   0.001267   0.001185   0.383508  -0.020456  -0.023325
    19  H    0.000000   0.000074  -0.022885  -0.024172   0.378612  -0.001744
    20  H   -0.003196  -0.021390   0.000007  -0.021526   0.001181   0.382744
    21  H    0.001322  -0.022934   0.000043  -0.023611  -0.001786   0.381229
    22  H   -0.003310  -0.022225  -0.021852   0.000005   0.001059   0.001242
    23  H    0.001298  -0.022383  -0.021467   0.000056  -0.000914  -0.001160
    24  H    0.000010   0.000006  -0.041037   0.000000   0.002445  -0.000004
    25  H    0.000000   0.000001  -0.001507  -0.002076  -0.022377   0.000005
    26  H    0.000000   0.000000  -0.000068   0.000008  -0.002390   0.000000
    27  H    0.000000   0.000000  -0.001209   0.000000  -0.001151   0.000000
    28  H    0.000000   0.000000   0.000038  -0.000012   0.001108   0.000000
    29  H    0.000000   0.000000   0.000010  -0.000035  -0.002508  -0.000003
    30  H    0.000000   0.000000  -0.000001  -0.001249  -0.001029   0.000007
    31  H    0.000000   0.000000  -0.000012   0.000038   0.001096   0.000000
              7          8          9         10         11         12
     1  C   -0.023011  -0.000827  -0.000001   0.000000   0.000000   0.382046
     2  C    0.361785  -0.000097   0.000001   0.000000   0.000000  -0.020450
     3  C    0.357505   0.266991  -0.018996  -0.002811   0.000567   0.000018
     4  C   -0.004422  -0.000389  -0.020699   0.000594  -0.002721   0.000002
     5  C   -0.021072  -0.017007   0.359060  -0.021199  -0.020828  -0.000002
     6  C   -0.023921   0.000054   0.000603  -0.000004   0.000015   0.001257
     7  C    4.783062  -0.019209   0.000541   0.000013  -0.000003  -0.002588
     8  O   -0.019209   7.848558  -0.000948  -0.000047   0.000001   0.000008
     9  C    0.000541  -0.000948   4.736906   0.363897   0.364212   0.000000
    10  C    0.000013  -0.000047   0.363897   4.744083  -0.027359   0.000000
    11  C   -0.000003   0.000001   0.364212  -0.027359   4.744557   0.000000
    12  H   -0.002588   0.000008   0.000000   0.000000   0.000000   0.636064
    13  H    0.001233   0.000012   0.000000   0.000000   0.000000  -0.021723
    14  H   -0.001176   0.000294   0.000001   0.000000   0.000000  -0.021639
    15  H   -0.023826  -0.000010   0.000001   0.000000   0.000000  -0.002041
    16  H   -0.027784  -0.019741  -0.001447  -0.001086   0.000000  -0.000003
    17  H    0.000095   0.000169  -0.002238   0.000009   0.000005  -0.000005
    18  H    0.000018  -0.000003  -0.001546   0.000003  -0.001384   0.000001
    19  H   -0.001236   0.000533  -0.022908  -0.001751  -0.002278   0.000000
    20  H    0.001236  -0.000001  -0.000013   0.000000   0.000000   0.000038
    21  H   -0.001249   0.000000   0.000004   0.000000   0.000001  -0.000036
    22  H    0.381064  -0.001586  -0.000013   0.000000   0.000000   0.000241
    23  H    0.379383   0.000628   0.000003   0.000001   0.000000   0.000033
    24  H   -0.003167   0.258530   0.000050  -0.000002   0.000000  -0.000033
    25  H    0.000001   0.000268   0.381524  -0.023886  -0.024362   0.000000
    26  H   -0.000003   0.000003  -0.020969   0.381513  -0.001538   0.000000
    27  H    0.000013   0.000139  -0.019415   0.382915   0.001363   0.000000
    28  H    0.000000  -0.000001  -0.019494   0.382599  -0.003703   0.000000
    29  H    0.000000   0.000000  -0.020898  -0.001464   0.381549   0.000000
    30  H    0.000000   0.000000  -0.019518   0.001366   0.382872   0.000000
    31  H    0.000000   0.000000  -0.019468  -0.003795   0.382650   0.000000
             13         14         15         16         17         18
     1  C    0.381819   0.382811  -0.025866  -0.000012  -0.000396   0.000009
     2  C   -0.020459  -0.019480   0.383058   0.001193  -0.001329   0.001267
     3  C   -0.000010   0.000017   0.001194   0.376620  -0.001482   0.001185
     4  C    0.000028  -0.000354   0.001241   0.001169   0.381653   0.383508
     5  C   -0.000001   0.000024   0.000013  -0.023052  -0.022043  -0.020456
     6  C   -0.001925  -0.001992  -0.023467   0.000022  -0.022039  -0.023325
     7  C    0.001233  -0.001176  -0.023826  -0.027784   0.000095   0.000018
     8  O    0.000012   0.000294  -0.000010  -0.019741   0.000169  -0.000003
     9  C    0.000000   0.000001   0.000001  -0.001447  -0.002238  -0.001546
    10  C    0.000000   0.000000   0.000000  -0.001086   0.000009   0.000003
    11  C    0.000000   0.000000   0.000000   0.000000   0.000005  -0.001384
    12  H   -0.021723  -0.021639  -0.002041  -0.000003  -0.000005   0.000001
    13  H    0.634573  -0.022039  -0.003172   0.000001   0.000040  -0.000003
    14  H   -0.022039   0.616160   0.001930   0.000003  -0.000486  -0.000006
    15  H   -0.003172   0.001930   0.654676  -0.000034  -0.000007  -0.000032
    16  H    0.000001   0.000003  -0.000034   0.664897  -0.000001  -0.000029
    17  H    0.000040  -0.000486  -0.000007  -0.000001   0.634702  -0.023487
    18  H   -0.000003  -0.000006  -0.000032  -0.000029  -0.023487   0.641949
    19  H    0.000000  -0.000001  -0.000012  -0.002518   0.001871  -0.002714
    20  H    0.000186   0.000003  -0.001261   0.000002  -0.002630  -0.002073
    21  H    0.000023   0.000004  -0.003844  -0.000010   0.001956  -0.003205
    22  H    0.000040   0.000014  -0.001194  -0.001651  -0.000008   0.000002
    23  H   -0.000036  -0.000008  -0.004220  -0.002954   0.000003  -0.000007
    24  H    0.000000  -0.000231  -0.000005  -0.003436  -0.000029   0.000001
    25  H    0.000000   0.000000   0.000000   0.000040   0.000321   0.000038
    26  H    0.000000   0.000000   0.000000  -0.000039   0.000000   0.000001
    27  H    0.000000   0.000000   0.000000  -0.001341   0.000001   0.000000
    28  H    0.000000   0.000000   0.000000   0.000017   0.000000   0.000000
    29  H    0.000000   0.000000   0.000000   0.000001   0.000010   0.000016
    30  H    0.000000   0.000000   0.000000   0.000000   0.000036  -0.001317
    31  H    0.000000   0.000000   0.000000   0.000000  -0.000006   0.000018
             19         20         21         22         23         24
     1  C    0.000000  -0.003196   0.001322  -0.003310   0.001298   0.000010
     2  C    0.000074  -0.021390  -0.022934  -0.022225  -0.022383   0.000006
     3  C   -0.022885   0.000007   0.000043  -0.021852  -0.021467  -0.041037
     4  C   -0.024172  -0.021526  -0.023611   0.000005   0.000056   0.000000
     5  C    0.378612   0.001181  -0.001786   0.001059  -0.000914   0.002445
     6  C   -0.001744   0.382744   0.381229   0.001242  -0.001160  -0.000004
     7  C   -0.001236   0.001236  -0.001249   0.381064   0.379383  -0.003167
     8  O    0.000533  -0.000001   0.000000  -0.001586   0.000628   0.258530
     9  C   -0.022908  -0.000013   0.000004  -0.000013   0.000003   0.000050
    10  C   -0.001751   0.000000   0.000000   0.000000   0.000001  -0.000002
    11  C   -0.002278   0.000000   0.000001   0.000000   0.000000   0.000000
    12  H    0.000000   0.000038  -0.000036   0.000241   0.000033  -0.000033
    13  H    0.000000   0.000186   0.000023   0.000040  -0.000036   0.000000
    14  H   -0.000001   0.000003   0.000004   0.000014  -0.000008  -0.000231
    15  H   -0.000012  -0.001261  -0.003844  -0.001194  -0.004220  -0.000005
    16  H   -0.002518   0.000002  -0.000010  -0.001651  -0.002954  -0.003436
    17  H    0.001871  -0.002630   0.001956  -0.000008   0.000003  -0.000029
    18  H   -0.002714  -0.002073  -0.003205   0.000002  -0.000007   0.000001
    19  H    0.653253   0.000004   0.000343   0.000010  -0.000011  -0.000072
    20  H    0.000004   0.639682  -0.023441  -0.000034   0.000002   0.000000
    21  H    0.000343  -0.023441   0.650201   0.000003   0.000198   0.000000
    22  H    0.000010  -0.000034   0.000003   0.644186  -0.022247   0.000604
    23  H   -0.000011   0.000002   0.000198  -0.022247   0.643268   0.000002
    24  H   -0.000072   0.000000   0.000000   0.000604   0.000002   0.609239
    25  H    0.001734   0.000000  -0.000001   0.000000  -0.000001  -0.000031
    26  H    0.000388   0.000000   0.000000   0.000000   0.000000   0.000000
    27  H    0.000024   0.000000   0.000000   0.000001   0.000000  -0.000007
    28  H   -0.000002   0.000000   0.000000   0.000000   0.000000   0.000000
    29  H    0.000436   0.000000   0.000000   0.000000   0.000000   0.000000
    30  H    0.000024   0.000001   0.000001   0.000000   0.000000   0.000000
    31  H    0.000006   0.000000   0.000000   0.000000   0.000000   0.000000
             25         26         27         28         29         30
     1  C    0.000000   0.000000   0.000000   0.000000   0.000000   0.000000
     2  C    0.000001   0.000000   0.000000   0.000000   0.000000   0.000000
     3  C   -0.001507  -0.000068  -0.001209   0.000038   0.000010  -0.000001
     4  C   -0.002076   0.000008   0.000000  -0.000012  -0.000035  -0.001249
     5  C   -0.022377  -0.002390  -0.001151   0.001108  -0.002508  -0.001029
     6  C    0.000005   0.000000   0.000000   0.000000  -0.000003   0.000007
     7  C    0.000001  -0.000003   0.000013   0.000000   0.000000   0.000000
     8  O    0.000268   0.000003   0.000139  -0.000001   0.000000   0.000000
     9  C    0.381524  -0.020969  -0.019415  -0.019494  -0.020898  -0.019518
    10  C   -0.023886   0.381513   0.382915   0.382599  -0.001464   0.001366
    11  C   -0.024362  -0.001538   0.001363  -0.003703   0.381549   0.382872
    12  H    0.000000   0.000000   0.000000   0.000000   0.000000   0.000000
    13  H    0.000000   0.000000   0.000000   0.000000   0.000000   0.000000
    14  H    0.000000   0.000000   0.000000   0.000000   0.000000   0.000000
    15  H    0.000000   0.000000   0.000000   0.000000   0.000000   0.000000
    16  H    0.000040  -0.000039  -0.001341   0.000017   0.000001   0.000000
    17  H    0.000321   0.000000   0.000001   0.000000   0.000010   0.000036
    18  H    0.000038   0.000001   0.000000   0.000000   0.000016  -0.001317
    19  H    0.001734   0.000388   0.000024  -0.000002   0.000436   0.000024
    20  H    0.000000   0.000000   0.000000   0.000000   0.000000   0.000001
    21  H   -0.000001   0.000000   0.000000   0.000000   0.000000   0.000001
    22  H    0.000000   0.000000   0.000001   0.000000   0.000000   0.000000
    23  H   -0.000001   0.000000   0.000000   0.000000   0.000000   0.000000
    24  H   -0.000031   0.000000  -0.000007   0.000000   0.000000   0.000000
    25  H    0.637452   0.001876  -0.002902  -0.001584   0.001880  -0.002980
    26  H    0.001876   0.635264  -0.021706  -0.021688   0.000281  -0.000002
    27  H   -0.002902  -0.021706   0.629832  -0.022505  -0.000004  -0.000039
    28  H   -0.001584  -0.021688  -0.022505   0.631935   0.000010   0.000059
    29  H    0.001880   0.000281  -0.000004   0.000010   0.633553  -0.021608
    30  H   -0.002980  -0.000002  -0.000039   0.000059  -0.021608   0.631542
    31  H   -0.001516   0.000012   0.000060  -0.000099  -0.021634  -0.022627
             31
     1  C    0.000000
     2  C    0.000000
     3  C   -0.000012
     4  C    0.000038
     5  C    0.001096
     6  C    0.000000
     7  C    0.000000
     8  O    0.000000
     9  C   -0.019468
    10  C   -0.003795
    11  C    0.382650
    12  H    0.000000
    13  H    0.000000
    14  H    0.000000
    15  H    0.000000
    16  H    0.000000
    17  H   -0.000006
    18  H    0.000018
    19  H    0.000006
    20  H    0.000000
    21  H    0.000000
    22  H    0.000000
    23  H    0.000000
    24  H    0.000000
    25  H   -0.001516
    26  H    0.000012
    27  H    0.000060
    28  H   -0.000099
    29  H   -0.021634
    30  H   -0.022627
    31  H    0.631413
 Mulliken atomic charges:
              1
     1  C   -0.177211
     2  C   -0.022492
     3  C    0.075833
     4  C   -0.102284
     5  C   -0.029220
     6  C   -0.099628
     7  C   -0.113281
     8  O   -0.316323
     9  C   -0.018233
    10  C   -0.173591
    11  C   -0.173617
    12  H    0.048814
    13  H    0.051413
    14  H    0.066151
    15  H    0.046878
    16  H    0.041174
    17  H    0.055312
    18  H    0.051573
    19  H    0.044992
    20  H    0.050477
    21  H    0.044789
    22  H    0.045647
    23  H    0.050532
    24  H    0.177165
    25  H    0.058083
    26  H    0.049058
    27  H    0.055931
    28  H    0.053322
    29  H    0.050408
    30  H    0.054465
    31  H    0.053863
 Sum of Mulliken atomic charges =   0.00000
 Mulliken charges with hydrogens summed into heavy atoms:
              1
     1  C   -0.010834
     2  C    0.024385
     3  C    0.117007
     4  C    0.004601
     5  C    0.015772
     6  C   -0.004362
     7  C   -0.017102
     8  O   -0.139157
     9  C    0.039850
    10  C   -0.015281
    11  C   -0.014880
 Sum of Mulliken charges with hydrogens summed into heavy atoms =   0.00000
 Electronic spatial extent (au):  <R**2>=           2051.8375
 Charge=              0.0000 electrons
 Dipole moment (field-independent basis, Debye):
    X=             -0.5091    Y=             -0.4659    Z=              1.0488  Tot=              1.2555
 Quadrupole moment (field-independent basis, Debye-Ang):
   XX=            -67.7357   YY=            -64.8798   ZZ=            -68.5450
   XY=              1.6724   XZ=              0.0210   YZ=             -0.7958
 Traceless Quadrupole moment (field-independent basis, Debye-Ang):
   XX=             -0.6822   YY=              2.1737   ZZ=             -1.4915
   XY=              1.6724   XZ=              0.0210   YZ=             -0.7958
 Octapole moment (field-independent basis, Debye-Ang**2):
  XXX=             -1.4258  YYY=            -20.4527  ZZZ=             -2.6634  XYY=             -7.4542
  XXY=             -4.7570  XXZ=             -3.0993  XZZ=              0.5940  YZZ=             -0.6959
  YYZ=             -3.3478  XYZ=             -0.4088
 Hexadecapole moment (field-independent basis, Debye-Ang**3):
 XXXX=          -1761.3828 YYYY=           -569.0685 ZZZZ=           -270.5874 XXXY=              1.0781
 XXXZ=             -8.6776 YYYX=             16.1823 YYYZ=             14.0736 ZZZX=              1.7675
 ZZZY=              8.7761 XXYY=           -392.6774 XXZZ=           -340.0015 YYZZ=           -146.9497
 XXYZ=              4.7504 YYXZ=              6.0309 ZZXY=              1.3954
 N-N= 7.000652448745D+02 E-N=-2.472323040516D+03  KE= 4.555177146592D+02
 ******************************Gaussian NBO Version 3.1******************************
             N A T U R A L   A T O M I C   O R B I T A L   A N D
          N A T U R A L   B O N D   O R B I T A L   A N A L Y S I S
 ******************************Gaussian NBO Version 3.1******************************
       /RESON  / : Allow strongly delocalized NBO set
       /NLMO   / : Form Natural Localized Molecular Orbitals
       /NMR /    : Analyze NMR Sheilding Tensor 

 Analyzing the SCF density

 Job title: comment                                                         

 Storage needed:     19864 in NPA,     23691 in NBO,     45933 in NLMO (  33549317 available)


 NATURAL POPULATIONS:  Natural atomic orbital occupancies 
                                                          
   NAO  Atom  No  lang   Type(AO)    Occupancy      Energy
 ----------------------------------------------------------
     1    C    1  S      Cor( 1S)     1.99997     -10.95805
     2    C    1  S      Val( 2S)     1.08007      -0.17561
     3    C    1  px     Val( 2p)     1.02609       0.08773
     4    C    1  py     Val( 2p)     1.02417       0.09060
     5    C    1  pz     Val( 2p)     1.00251       0.09439

     6    C    2  S      Cor( 1S)     1.99997     -10.98627
     7    C    2  S      Val( 2S)     1.07866      -0.18827
     8    C    2  px     Val( 2p)     0.97644       0.10844
     9    C    2  py     Val( 2p)     0.95985       0.11161
    10    C    2  pz     Val( 2p)     0.96963       0.11063

    11    C    3  S      Cor( 1S)     1.99988     -11.03400
    12    C    3  S      Val( 2S)     1.08785      -0.21651
    13    C    3  px     Val( 2p)     0.96728       0.08914
    14    C    3  py     Val( 2p)     0.97292       0.08336
    15    C    3  pz     Val( 2p)     0.82862       0.13026

    16    C    4  S      Cor( 1S)     1.99996     -10.96894
    17    C    4  S      Val( 2S)     1.08420      -0.18337
    18    C    4  px     Val( 2p)     0.97899       0.10206
    19    C    4  py     Val( 2p)     0.99549       0.10139
    20    C    4  pz     Val( 2p)     1.00719       0.09988

    21    C    5  S      Cor( 1S)     1.99995     -10.98975
    22    C    5  S      Val( 2S)     1.10134      -0.20959
    23    C    5  px     Val( 2p)     0.95839       0.10452
    24    C    5  py     Val( 2p)     0.95711       0.10653
    25    C    5  pz     Val( 2p)     0.98901       0.10369

    26    C    6  S      Cor( 1S)     1.99996     -10.97073
    27    C    6  S      Val( 2S)     1.08240      -0.18353
    28    C    6  px     Val( 2p)     0.98188       0.10251
    29    C    6  py     Val( 2p)     0.98828       0.09942
    30    C    6  pz     Val( 2p)     1.00990       0.09690

    31    C    7  S      Cor( 1S)     1.99996     -10.97656
    32    C    7  S      Val( 2S)     1.09288      -0.20002
    33    C    7  px     Val( 2p)     0.98839       0.09082
    34    C    7  py     Val( 2p)     0.99822       0.08851
    35    C    7  pz     Val( 2p)     1.00976       0.08329

    36    O    8  S      Cor( 1S)     1.99999     -20.14071
    37    O    8  S      Val( 2S)     1.74746      -0.99809
    38    O    8  px     Val( 2p)     1.78772      -0.29684
    39    O    8  py     Val( 2p)     1.41225      -0.14382
    40    O    8  pz     Val( 2p)     1.39000      -0.13469

    41    C    9  S      Cor( 1S)     1.99996     -10.98599
    42    C    9  S      Val( 2S)     1.08601      -0.19153
    43    C    9  px     Val( 2p)     0.94455       0.11967
    44    C    9  py     Val( 2p)     0.95017       0.11775
    45    C    9  pz     Val( 2p)     0.99693       0.10727

    46    C   10  S      Cor( 1S)     1.99997     -10.95882
    47    C   10  S      Val( 2S)     1.08111      -0.17707
    48    C   10  px     Val( 2p)     1.01815       0.08948
    49    C   10  py     Val( 2p)     1.01035       0.09146
    50    C   10  pz     Val( 2p)     1.01977       0.09230

    51    C   11  S      Cor( 1S)     1.99997     -10.95978
    52    C   11  S      Val( 2S)     1.08137      -0.17810
    53    C   11  px     Val( 2p)     1.01659       0.08879
    54    C   11  py     Val( 2p)     1.00568       0.09060
    55    C   11  pz     Val( 2p)     1.02571       0.09106

    56    H   12  S      Val( 1S)     0.96773       0.07570

    57    H   13  S      Val( 1S)     0.96539       0.07834

    58    H   14  S      Val( 1S)     0.95264       0.09323

    59    H   15  S      Val( 1S)     0.97719       0.06780

    60    H   16  S      Val( 1S)     0.99483       0.05080

    61    H   17  S      Val( 1S)     0.96644       0.08300

    62    H   18  S      Val( 1S)     0.96951       0.07796

    63    H   19  S      Val( 1S)     0.98038       0.06130

    64    H   20  S      Val( 1S)     0.97009       0.07399

    65    H   21  S      Val( 1S)     0.97563       0.07031

    66    H   22  S      Val( 1S)     0.97405       0.06002

    67    H   23  S      Val( 1S)     0.96939       0.06491

    68    H   24  S      Val( 1S)     0.81015       0.07466

    69    H   25  S      Val( 1S)     0.96864       0.08215

    70    H   26  S      Val( 1S)     0.96802       0.07548

    71    H   27  S      Val( 1S)     0.96189       0.08398

    72    H   28  S      Val( 1S)     0.96381       0.07962

    73    H   29  S      Val( 1S)     0.96681       0.07614

    74    H   30  S      Val( 1S)     0.96320       0.08203

    75    H   31  S      Val( 1S)     0.96333       0.07893


 Summary of Natural Population Analysis:                  
                                                          
                                       Natural Population 
                Natural  -----------------------------------------------
    Atom  No    Charge         Core      Valence    Rydberg      Total
 -----------------------------------------------------------------------
      C    1   -0.13281      1.99997     4.13284    0.00000     6.13281
      C    2    0.01546      1.99997     3.98457    0.00000     5.98454
      C    3    0.14345      1.99988     3.85667    0.00000     5.85655
      C    4   -0.06582      1.99996     4.06587    0.00000     6.06582
      C    5   -0.00581      1.99995     4.00586    0.00000     6.00581
      C    6   -0.06242      1.99996     4.06246    0.00000     6.06242
      C    7   -0.08921      1.99996     4.08925    0.00000     6.08921
      O    8   -0.33742      1.99999     6.33743    0.00000     8.33742
      C    9    0.02238      1.99996     3.97766    0.00000     5.97762
      C   10   -0.12935      1.99997     4.12938    0.00000     6.12935
      C   11   -0.12931      1.99997     4.12934    0.00000     6.12931
      H   12    0.03227      0.00000     0.96773    0.00000     0.96773
      H   13    0.03461      0.00000     0.96539    0.00000     0.96539
      H   14    0.04736      0.00000     0.95264    0.00000     0.95264
      H   15    0.02281      0.00000     0.97719    0.00000     0.97719
      H   16    0.00517      0.00000     0.99483    0.00000     0.99483
      H   17    0.03356      0.00000     0.96644    0.00000     0.96644
      H   18    0.03049      0.00000     0.96951    0.00000     0.96951
      H   19    0.01962      0.00000     0.98038    0.00000     0.98038
      H   20    0.02991      0.00000     0.97009    0.00000     0.97009
      H   21    0.02437      0.00000     0.97563    0.00000     0.97563
      H   22    0.02595      0.00000     0.97405    0.00000     0.97405
      H   23    0.03061      0.00000     0.96939    0.00000     0.96939
      H   24    0.18985      0.00000     0.81015    0.00000     0.81015
      H   25    0.03136      0.00000     0.96864    0.00000     0.96864
      H   26    0.03198      0.00000     0.96802    0.00000     0.96802
      H   27    0.03811      0.00000     0.96189    0.00000     0.96189
      H   28    0.03619      0.00000     0.96381    0.00000     0.96381
      H   29    0.03319      0.00000     0.96681    0.00000     0.96681
      H   30    0.03680      0.00000     0.96320    0.00000     0.96320
      H   31    0.03667      0.00000     0.96333    0.00000     0.96333
 =======================================================================
   * Total *    0.00000     21.99954    66.00046    0.00000    88.00000

                                 Natural Population      
 --------------------------------------------------------
   Core                      21.99954 ( 99.9979% of  22)
   Valence                   66.00046 (100.0007% of  66)
   Natural Minimal Basis     88.00000 (100.0000% of  88)
   Natural Rydberg Basis      0.00000 (  0.0000% of  88)
 --------------------------------------------------------

    Atom  No          Natural Electron Configuration
 ----------------------------------------------------------------------------
      C    1      [core]2S( 1.08)2p( 3.05)
      C    2      [core]2S( 1.08)2p( 2.91)
      C    3      [core]2S( 1.09)2p( 2.77)
      C    4      [core]2S( 1.08)2p( 2.98)
      C    5      [core]2S( 1.10)2p( 2.90)
      C    6      [core]2S( 1.08)2p( 2.98)
      C    7      [core]2S( 1.09)2p( 3.00)
      O    8      [core]2S( 1.75)2p( 4.59)
      C    9      [core]2S( 1.09)2p( 2.89)
      C   10      [core]2S( 1.08)2p( 3.05)
      C   11      [core]2S( 1.08)2p( 3.05)
      H   12            1S( 0.97)
      H   13            1S( 0.97)
      H   14            1S( 0.95)
      H   15            1S( 0.98)
      H   16            1S( 0.99)
      H   17            1S( 0.97)
      H   18            1S( 0.97)
      H   19            1S( 0.98)
      H   20            1S( 0.97)
      H   21            1S( 0.98)
      H   22            1S( 0.97)
      H   23            1S( 0.97)
      H   24            1S( 0.81)
      H   25            1S( 0.97)
      H   26            1S( 0.97)
      H   27            1S( 0.96)
      H   28            1S( 0.96)
      H   29            1S( 0.97)
      H   30            1S( 0.96)
      H   31            1S( 0.96)


 NATURAL BOND ORBITAL ANALYSIS:

                       Occupancies       Lewis Structure    Low   High
           Occ.    -------------------  -----------------   occ   occ
  Cycle   Thresh.   Lewis   Non-Lewis     CR  BD  3C  LP    (L)   (NL)   Dev
 =============================================================================
   1(1)    1.90    87.63793   0.36207     11  31   0   2     0      0    0.02
 -----------------------------------------------------------------------------

 Structure accepted: No low occupancy Lewis orbitals

 --------------------------------------------------------
   Core                     21.99953 ( 99.998% of  22)
   Valence Lewis            65.63840 ( 99.452% of  66)
  ==================       ============================
   Total Lewis              87.63793 ( 99.589% of  88)
  -----------------------------------------------------
   Valence non-Lewis         0.36207 (  0.411% of  88)
   Rydberg non-Lewis         0.00000 (  0.000% of  88)
  ==================       ============================
   Total non-Lewis           0.36207 (  0.411% of  88)
 --------------------------------------------------------


       (Occupancy)   Bond orbital/ Coefficients/ Hybrids
 ---------------------------------------------------------------------------------
     1. (1.99055) BD ( 1) C   1 - C   2  
                ( 50.77%)   0.7126* C   1 s( 25.85%)p 2.87( 74.15%)
                                            0.0001  0.5085  0.3480  0.1665  0.7698
                ( 49.23%)   0.7016* C   2 s( 25.28%)p 2.96( 74.72%)
                                            0.0000  0.5028 -0.2971 -0.1816 -0.7912
     2. (1.99475) BD ( 1) C   1 - H  12  
                ( 51.62%)   0.7185* C   1 s( 24.65%)p 3.06( 75.35%)
                                            0.0000  0.4965 -0.4635 -0.7328  0.0402
                ( 48.38%)   0.6956* H  12 s(100.00%)
                                            1.0000
     3. (1.99479) BD ( 1) C   1 - H  13  
                ( 51.73%)   0.7192* C   1 s( 24.43%)p 3.09( 75.57%)
                                            0.0000  0.4942 -0.5244  0.6538 -0.2308
                ( 48.27%)   0.6948* H  13 s(100.00%)
                                            1.0000
     4. (1.99547) BD ( 1) C   1 - H  14  
                ( 52.46%)   0.7243* C   1 s( 25.07%)p 2.99( 74.93%)
                                            0.0000  0.5007  0.6238 -0.0878 -0.5937
                ( 47.54%)   0.6895* H  14 s(100.00%)
                                            1.0000
     5. (1.98557) BD ( 1) C   2 - C   6  
                ( 49.73%)   0.7052* C   2 s( 25.22%)p 2.97( 74.78%)
                                            0.0000  0.5022  0.4939  0.7092 -0.0292
                ( 50.27%)   0.7090* C   6 s( 25.43%)p 2.93( 74.57%)
                                            0.0001  0.5043 -0.4677 -0.7258 -0.0097
     6. (1.98540) BD ( 1) C   2 - C   7  
                ( 49.24%)   0.7017* C   2 s( 25.18%)p 2.97( 74.82%)
                                            0.0000  0.5018  0.4643 -0.6664  0.2975
                ( 50.76%)   0.7125* C   7 s( 25.45%)p 2.93( 74.55%)
                                            0.0001  0.5045 -0.4249  0.6621 -0.3557
     7. (1.98423) BD ( 1) C   2 - H  15  
                ( 51.02%)   0.7143* C   2 s( 24.33%)p 3.11( 75.67%)
                                            0.0000  0.4932 -0.6724  0.1410  0.5335
                ( 48.98%)   0.6999* H  15 s(100.00%)
                                            1.0000
     8. (1.98111) BD ( 1) C   3 - C   5  
                ( 50.77%)   0.7126* C   3 s( 26.72%)p 2.74( 73.28%)
                                            0.0000  0.5170  0.4527  0.7257 -0.0347
                ( 49.23%)   0.7016* C   5 s( 24.96%)p 3.01( 75.04%)
                                            0.0001  0.4996 -0.4599 -0.7335 -0.0283
     9. (1.98754) BD ( 1) C   3 - C   7  
                ( 49.27%)   0.7019* C   3 s( 25.75%)p 2.88( 74.25%)
                                            0.0000  0.5074 -0.7827  0.1427  0.3309
                ( 50.73%)   0.7123* C   7 s( 25.34%)p 2.95( 74.66%)
                                            0.0000  0.5034  0.7733 -0.0889 -0.3752
    10. (1.98915) BD ( 1) C   3 - O   8  
                ( 40.93%)   0.6398* C   3 s( 22.20%)p 3.50( 77.80%)
                                            0.0000  0.4712 -0.0978 -0.3138 -0.8185
                ( 59.07%)   0.7686* O   8 s( 16.69%)p 4.99( 83.31%)
                                            0.0000  0.4085  0.0462  0.2825  0.8667
    11. (1.98802) BD ( 1) C   3 - H  16  
                ( 50.55%)   0.7110* C   3 s( 25.32%)p 2.95( 74.68%)
                                            0.0000  0.5032  0.4157 -0.5955  0.4683
                ( 49.45%)   0.7032* H  16 s(100.00%)
                                            1.0000
    12. (1.98481) BD ( 1) C   4 - C   5  
                ( 50.26%)   0.7089* C   4 s( 25.31%)p 2.95( 74.69%)
                                            0.0001  0.5031  0.4418 -0.6489  0.3614
                ( 49.74%)   0.7053* C   5 s( 25.02%)p 3.00( 74.98%)
                                            0.0000  0.5002 -0.4482  0.6363 -0.3795
    13. (1.98962) BD ( 1) C   4 - C   6  
                ( 49.85%)   0.7060* C   4 s( 25.11%)p 2.98( 74.89%)
                                            0.0000  0.5011 -0.7719  0.0767  0.3837
                ( 50.15%)   0.7082* C   6 s( 25.38%)p 2.94( 74.62%)
                                            0.0000  0.5038  0.7608 -0.1351 -0.3862
    14. (1.99056) BD ( 1) C   4 - H  17  
                ( 51.71%)   0.7191* C   4 s( 24.90%)p 3.02( 75.10%)
                                            0.0000  0.4990 -0.1116 -0.1594 -0.8445
                ( 48.29%)   0.6949* H  17 s(100.00%)
                                            1.0000
    15. (1.98873) BD ( 1) C   4 - H  18  
                ( 51.48%)   0.7175* C   4 s( 24.67%)p 3.05( 75.33%)
                                            0.0000  0.4967  0.4433  0.7400  0.0952
                ( 48.52%)   0.6966* H  18 s(100.00%)
                                            1.0000
    16. (1.97834) BD ( 1) C   5 - C   9  
                ( 50.32%)   0.7094* C   5 s( 25.46%)p 2.93( 74.54%)
                                            0.0001  0.5046  0.7516 -0.1117 -0.4099
                ( 49.68%)   0.7048* C   9 s( 25.28%)p 2.96( 74.72%)
                                            0.0001  0.5028 -0.7573  0.0983  0.4051
    17. (1.98391) BD ( 1) C   5 - H  19  
                ( 50.88%)   0.7133* C   5 s( 24.56%)p 3.07( 75.44%)
                                            0.0000  0.4956  0.1508  0.2110  0.8289
                ( 49.12%)   0.7009* H  19 s(100.00%)
                                            1.0000
    18. (1.98977) BD ( 1) C   6 - H  20  
                ( 51.48%)   0.7175* C   6 s( 24.98%)p 3.00( 75.02%)
                                            0.0000  0.4998 -0.4289  0.6291 -0.4129
                ( 48.52%)   0.6966* H  20 s(100.00%)
                                            1.0000
    19. (1.99040) BD ( 1) C   6 - H  21  
                ( 51.21%)   0.7156* C   6 s( 24.21%)p 3.13( 75.79%)
                                            0.0000  0.4920  0.1361  0.2432  0.8248
                ( 48.79%)   0.6985* H  21 s(100.00%)
                                            1.0000
    20. (1.98803) BD ( 1) C   7 - H  22  
                ( 51.25%)   0.7159* C   7 s( 24.99%)p 3.00( 75.01%)
                                            0.0000  0.4999 -0.4577 -0.7284 -0.1001
                ( 48.75%)   0.6982* H  22 s(100.00%)
                                            1.0000
    21. (1.98866) BD ( 1) C   7 - H  23  
                ( 51.46%)   0.7174* C   7 s( 24.22%)p 3.13( 75.78%)
                                            0.0000  0.4921  0.1096  0.1521  0.8501
                ( 48.54%)   0.6967* H  23 s(100.00%)
                                            1.0000
    22. (1.98910) BD ( 1) O   8 - H  24  
                ( 59.50%)   0.7713* O   8 s( 16.86%)p 4.93( 83.14%)
                                            0.0000 -0.4106  0.4805  0.7705 -0.0832
                ( 40.50%)   0.6364* H  24 s(100.00%)
                                           -1.0000
    23. (1.98934) BD ( 1) C   9 - C  10  
                ( 48.91%)   0.6993* C   9 s( 24.91%)p 3.01( 75.09%)
                                            0.0000  0.4991  0.4399 -0.6532  0.3615
                ( 51.09%)   0.7148* C  10 s( 25.83%)p 2.87( 74.17%)
                                            0.0001  0.5082 -0.4611  0.6474 -0.3316
    24. (1.98894) BD ( 1) C   9 - C  11  
                ( 48.91%)   0.6994* C   9 s( 24.97%)p 3.00( 75.03%)
                                            0.0000  0.4997  0.4620  0.7297  0.0662
                ( 51.09%)   0.7148* C  11 s( 25.82%)p 2.87( 74.18%)
                                            0.0001  0.5082 -0.4866 -0.7096 -0.0378
    25. (1.98522) BD ( 1) C   9 - H  25  
                ( 51.50%)   0.7176* C   9 s( 24.83%)p 3.03( 75.17%)
                                            0.0000  0.4983 -0.1399 -0.1767 -0.8372
                ( 48.50%)   0.6964* H  25 s(100.00%)
                                            1.0000
    26. (1.99563) BD ( 1) C  10 - H  26  
                ( 51.64%)   0.7186* C  10 s( 24.80%)p 3.03( 75.20%)
                                            0.0000  0.4980  0.0854  0.1085  0.8561
                ( 48.36%)   0.6954* H  26 s(100.00%)
                                            1.0000
    27. (1.99485) BD ( 1) C  10 - H  27  
                ( 51.93%)   0.7206* C  10 s( 24.71%)p 3.05( 75.29%)
                                            0.0000  0.4971 -0.4006 -0.7542 -0.1536
                ( 48.07%)   0.6933* H  27 s(100.00%)
                                            1.0000
    28. (1.99442) BD ( 1) C  10 - H  28  
                ( 51.81%)   0.7198* C  10 s( 24.66%)p 3.05( 75.34%)
                                            0.0000  0.4966  0.7872 -0.0164 -0.3653
                ( 48.19%)   0.6942* H  28 s(100.00%)
                                            1.0000
    29. (1.99567) BD ( 1) C  11 - H  29  
                ( 51.71%)   0.7191* C  11 s( 24.82%)p 3.03( 75.18%)
                                            0.0000  0.4981  0.0814  0.2571  0.8241
                ( 48.29%)   0.6949* H  29 s(100.00%)
                                            1.0000
    30. (1.99472) BD ( 1) C  11 - H  30  
                ( 51.86%)   0.7202* C  11 s( 24.69%)p 3.05( 75.31%)
                                            0.0000  0.4969 -0.3705  0.6345 -0.4617
                ( 48.14%)   0.6938* H  30 s(100.00%)
                                            1.0000
    31. (1.99429) BD ( 1) C  11 - H  31  
                ( 51.83%)   0.7199* C  11 s( 24.67%)p 3.05( 75.33%)
                                            0.0000  0.4967  0.7869 -0.1666 -0.3260
                ( 48.17%)   0.6940* H  31 s(100.00%)
                                            1.0000
    32. (1.99997) CR ( 1) C   1           s(100.00%)
                                            1.0000  0.0000 -0.0001  0.0000 -0.0001
    33. (1.99997) CR ( 1) C   2           s(100.00%)
                                            1.0000  0.0000  0.0000  0.0000  0.0000
    34. (1.99988) CR ( 1) C   3           s(100.00%)
                                            1.0000  0.0000  0.0000  0.0000  0.0000
    35. (1.99995) CR ( 1) C   4           s(100.00%)
                                            1.0000  0.0000  0.0000  0.0001  0.0000
    36. (1.99995) CR ( 1) C   5           s(100.00%)
                                            1.0000 -0.0001  0.0000  0.0000  0.0000
    37. (1.99996) CR ( 1) C   6           s(100.00%)
                                            1.0000  0.0000  0.0000  0.0001  0.0000
    38. (1.99996) CR ( 1) C   7           s(100.00%)
                                            1.0000  0.0000  0.0000 -0.0001  0.0001
    39. (1.99999) CR ( 1) O   8           s(100.00%)
                                            1.0000  0.0000  0.0000  0.0000  0.0000
    40. (1.99996) CR ( 1) C   9           s(100.00%)
                                            1.0000  0.0000  0.0001  0.0000  0.0000
    41. (1.99997) CR ( 1) C  10           s(100.00%)
                                            1.0000  0.0000  0.0001 -0.0001  0.0000
    42. (1.99997) CR ( 1) C  11           s(100.00%)
                                            1.0000  0.0000  0.0001  0.0001  0.0000
    43. (1.99257) LP ( 1) O   8           s( 66.43%)p 0.51( 33.57%)
                                            0.0000  0.8151  0.2054  0.2547 -0.4782
    44. (1.97426) LP ( 2) O   8           s(  0.02%)p99.99( 99.98%)
                                            0.0000  0.0130  0.8514 -0.5116  0.1152
    45. (0.01114) BD*( 1) C   1 - C   2  
                ( 49.23%)   0.7016* C   1 s( 25.85%)p 2.87( 74.15%)
                                           -0.0001 -0.5085 -0.3480 -0.1665 -0.7698
                ( 50.77%)  -0.7126* C   2 s( 25.28%)p 2.96( 74.72%)
                                            0.0000 -0.5028  0.2971  0.1816  0.7912
    46. (0.00512) BD*( 1) C   1 - H  12  
                ( 48.38%)   0.6956* C   1 s( 24.65%)p 3.06( 75.35%)
                                            0.0000 -0.4965  0.4635  0.7328 -0.0402
                ( 51.62%)  -0.7185* H  12 s(100.00%)
                                           -1.0000
    47. (0.00485) BD*( 1) C   1 - H  13  
                ( 48.27%)   0.6948* C   1 s( 24.43%)p 3.09( 75.57%)
                                            0.0000 -0.4942  0.5244 -0.6538  0.2308
                ( 51.73%)  -0.7192* H  13 s(100.00%)
                                           -1.0000
    48. (0.00745) BD*( 1) C   1 - H  14  
                ( 47.54%)   0.6895* C   1 s( 25.07%)p 2.99( 74.93%)
                                            0.0000 -0.5007 -0.6238  0.0878  0.5937
                ( 52.46%)  -0.7243* H  14 s(100.00%)
                                           -1.0000
    49. (0.01631) BD*( 1) C   2 - C   6  
                ( 50.27%)   0.7090* C   2 s( 25.22%)p 2.97( 74.78%)
                                            0.0000  0.5022  0.4939  0.7092 -0.0292
                ( 49.73%)  -0.7052* C   6 s( 25.43%)p 2.93( 74.57%)
                                            0.0001  0.5043 -0.4677 -0.7258 -0.0097
    50. (0.01687) BD*( 1) C   2 - C   7  
                ( 50.76%)   0.7125* C   2 s( 25.18%)p 2.97( 74.82%)
                                            0.0000  0.5018  0.4643 -0.6664  0.2975
                ( 49.24%)  -0.7017* C   7 s( 25.45%)p 2.93( 74.55%)
                                            0.0001  0.5045 -0.4249  0.6621 -0.3557
    51. (0.01032) BD*( 1) C   2 - H  15  
                ( 48.98%)   0.6999* C   2 s( 24.33%)p 3.11( 75.67%)
                                            0.0000 -0.4932  0.6724 -0.1410 -0.5335
                ( 51.02%)  -0.7143* H  15 s(100.00%)
                                           -1.0000
    52. (0.02734) BD*( 1) C   3 - C   5  
                ( 49.23%)   0.7016* C   3 s( 26.72%)p 2.74( 73.28%)
                                            0.0000 -0.5170 -0.4527 -0.7257  0.0347
                ( 50.77%)  -0.7126* C   5 s( 24.96%)p 3.01( 75.04%)
                                           -0.0001 -0.4996  0.4599  0.7335  0.0283
    53. (0.02831) BD*( 1) C   3 - C   7  
                ( 50.73%)   0.7123* C   3 s( 25.75%)p 2.88( 74.25%)
                                            0.0000  0.5074 -0.7827  0.1427  0.3309
                ( 49.27%)  -0.7019* C   7 s( 25.34%)p 2.95( 74.66%)
                                            0.0000  0.5034  0.7733 -0.0889 -0.3752
    54. (0.02243) BD*( 1) C   3 - O   8  
                ( 59.07%)   0.7686* C   3 s( 22.20%)p 3.50( 77.80%)
                                            0.0000  0.4712 -0.0978 -0.3138 -0.8185
                ( 40.93%)  -0.6398* O   8 s( 16.69%)p 4.99( 83.31%)
                                            0.0000  0.4085  0.0462  0.2825  0.8667
    55. (0.02309) BD*( 1) C   3 - H  16  
                ( 49.45%)   0.7032* C   3 s( 25.32%)p 2.95( 74.68%)
                                            0.0000 -0.5032 -0.4157  0.5955 -0.4683
                ( 50.55%)  -0.7110* H  16 s(100.00%)
                                           -1.0000
    56. (0.01617) BD*( 1) C   4 - C   5  
                ( 49.74%)   0.7053* C   4 s( 25.31%)p 2.95( 74.69%)
                                           -0.0001 -0.5031 -0.4418  0.6489 -0.3614
                ( 50.26%)  -0.7089* C   5 s( 25.02%)p 3.00( 74.98%)
                                            0.0000 -0.5002  0.4482 -0.6363  0.3795
    57. (0.01202) BD*( 1) C   4 - C   6  
                ( 50.15%)   0.7082* C   4 s( 25.11%)p 2.98( 74.89%)
                                            0.0000  0.5011 -0.7719  0.0767  0.3837
                ( 49.85%)  -0.7060* C   6 s( 25.38%)p 2.94( 74.62%)
                                            0.0000  0.5038  0.7608 -0.1351 -0.3862
    58. (0.01020) BD*( 1) C   4 - H  17  
                ( 48.29%)   0.6949* C   4 s( 24.90%)p 3.02( 75.10%)
                                            0.0000 -0.4990  0.1116  0.1594  0.8445
                ( 51.71%)  -0.7191* H  17 s(100.00%)
                                           -1.0000
    59. (0.00893) BD*( 1) C   4 - H  18  
                ( 48.52%)   0.6966* C   4 s( 24.67%)p 3.05( 75.33%)
                                            0.0000 -0.4967 -0.4433 -0.7400 -0.0952
                ( 51.48%)  -0.7175* H  18 s(100.00%)
                                           -1.0000
    60. (0.02156) BD*( 1) C   5 - C   9  
                ( 49.68%)   0.7048* C   5 s( 25.46%)p 2.93( 74.54%)
                                           -0.0001 -0.5046 -0.7516  0.1117  0.4099
                ( 50.32%)  -0.7094* C   9 s( 25.28%)p 2.96( 74.72%)
                                           -0.0001 -0.5028  0.7573 -0.0983 -0.4051
    61. (0.01159) BD*( 1) C   5 - H  19  
                ( 49.12%)   0.7009* C   5 s( 24.56%)p 3.07( 75.44%)
                                            0.0000 -0.4956 -0.1508 -0.2110 -0.8289
                ( 50.88%)  -0.7133* H  19 s(100.00%)
                                           -1.0000
    62. (0.00885) BD*( 1) C   6 - H  20  
                ( 48.52%)   0.6966* C   6 s( 24.98%)p 3.00( 75.02%)
                                            0.0000 -0.4998  0.4289 -0.6291  0.4129
                ( 51.48%)  -0.7175* H  20 s(100.00%)
                                           -1.0000
    63. (0.00895) BD*( 1) C   6 - H  21  
                ( 48.79%)   0.6985* C   6 s( 24.21%)p 3.13( 75.79%)
                                            0.0000 -0.4920 -0.1361 -0.2432 -0.8248
                ( 51.21%)  -0.7156* H  21 s(100.00%)
                                           -1.0000
    64. (0.00970) BD*( 1) C   7 - H  22  
                ( 48.75%)   0.6982* C   7 s( 24.99%)p 3.00( 75.01%)
                                            0.0000 -0.4999  0.4577  0.7284  0.1001
                ( 51.25%)  -0.7159* H  22 s(100.00%)
                                           -1.0000
    65. (0.00796) BD*( 1) C   7 - H  23  
                ( 48.54%)   0.6967* C   7 s( 24.22%)p 3.13( 75.78%)
                                            0.0000 -0.4921 -0.1096 -0.1521 -0.8501
                ( 51.46%)  -0.7174* H  23 s(100.00%)
                                           -1.0000
    66. (0.00752) BD*( 1) O   8 - H  24  
                ( 40.50%)   0.6364* O   8 s( 16.86%)p 4.93( 83.14%)
                                            0.0000  0.4106 -0.4805 -0.7705  0.0832
                ( 59.50%)  -0.7713* H  24 s(100.00%)
                                            1.0000
    67. (0.01024) BD*( 1) C   9 - C  10  
                ( 51.09%)   0.7148* C   9 s( 24.91%)p 3.01( 75.09%)
                                            0.0000  0.4991  0.4399 -0.6532  0.3615
                ( 48.91%)  -0.6993* C  10 s( 25.83%)p 2.87( 74.17%)
                                            0.0001  0.5082 -0.4611  0.6474 -0.3316
    68. (0.01007) BD*( 1) C   9 - C  11  
                ( 51.09%)   0.7148* C   9 s( 24.97%)p 3.00( 75.03%)
                                            0.0000  0.4997  0.4620  0.7297  0.0662
                ( 48.91%)  -0.6994* C  11 s( 25.82%)p 2.87( 74.18%)
                                            0.0001  0.5082 -0.4866 -0.7096 -0.0378
    69. (0.01132) BD*( 1) C   9 - H  25  
                ( 48.50%)   0.6964* C   9 s( 24.83%)p 3.03( 75.17%)
                                            0.0000 -0.4983  0.1399  0.1767  0.8372
                ( 51.50%)  -0.7176* H  25 s(100.00%)
                                           -1.0000
    70. (0.00584) BD*( 1) C  10 - H  26  
                ( 48.36%)   0.6954* C  10 s( 24.80%)p 3.03( 75.20%)
                                            0.0000 -0.4980 -0.0854 -0.1085 -0.8561
                ( 51.64%)  -0.7186* H  26 s(100.00%)
                                           -1.0000
    71. (0.00571) BD*( 1) C  10 - H  27  
                ( 48.07%)   0.6933* C  10 s( 24.71%)p 3.05( 75.29%)
                                            0.0000 -0.4971  0.4006  0.7542  0.1536
                ( 51.93%)  -0.7206* H  27 s(100.00%)
                                           -1.0000
    72. (0.00526) BD*( 1) C  10 - H  28  
                ( 48.19%)   0.6942* C  10 s( 24.66%)p 3.05( 75.34%)
                                            0.0000 -0.4966 -0.7872  0.0164  0.3653
[...]
   38     200.0147       -0.0023     200.0171         0.0030     200.0117
 Sum      212.9658      -23.5522     236.5180       -27.4588     240.4246

 Contributions to Isotropic shielding for atom    8 (   355.8316 ppm):
                         Standard Origin              Atomic Origin
 NLMO      Total    Paramagnetic  Diamagnetic   Paramagnetic  Diamagnetic
   10      26.1685       10.0273      16.1413        15.5172      10.6514
   11       0.3640       -0.1016       0.4656        -0.8859       1.2498
   16      -0.1264       -0.2988       0.1724        -1.0177       0.8912
   20      -0.8152       -1.3891       0.5739        -1.7237       0.9085
   21      -0.9280       -1.3551       0.4271        -1.2650       0.3370
   22      19.5035       10.5395       8.9640         5.0652      14.4382
   39     271.1704       -0.0045     271.1748        -0.0039     271.1743
   43      34.5435       -3.2123      37.7558        -2.8774      37.4209
   44       3.9918      -35.3533      39.3451       -35.9533      39.9451
 Sum      353.8720      -21.1479     375.0199       -23.1445     377.0165

 Contributions to Isotropic shielding for atom    9 (   213.2368 ppm):
                         Standard Origin              Atomic Origin
 NLMO      Total    Paramagnetic  Diamagnetic   Paramagnetic  Diamagnetic
   10       0.1099       -0.4130       0.5230        -1.3112       1.4212
   16       5.3052       -9.5506      14.8557        -2.3213       7.6264
   23      -1.5468       -5.2209       3.6741        -8.9964       7.4496
   24      -1.6885       -4.4439       2.7553        -9.1558       7.4672
   25       6.2828       -4.6430      10.9258        -4.8292      11.1121
   26       0.9288       -0.4076       1.3364        -0.1377       1.0666
   27       0.7132       -0.5871       1.3003        -0.2832       0.9965
   29       0.9882       -0.4134       1.4016        -0.0773       1.0655
   30       0.7335       -0.5695       1.3029        -0.2545       0.9879
   40     199.9193       -0.0006     199.9199         0.0010     199.9182
 Sum      211.7456      -26.2494     237.9951       -27.3656     239.1112

 Contributions to Isotropic shielding for atom   10 (   221.3417 ppm):
                         Standard Origin              Atomic Origin
 NLMO      Total    Paramagnetic  Diamagnetic   Paramagnetic  Diamagnetic
   10       0.0504       -0.0953       0.1458        -1.0378       1.0882
   23       4.4035      -11.0031      15.4066        -3.6329       8.0364
   24      -0.5104        0.2130      -0.7235        -1.2356       0.7252
   25       0.3331       -0.1466       0.4796        -0.7110       1.0441
   26       6.0127       -3.1500       9.1627        -5.0532      11.0659
   27       6.3621       -5.1535      11.5157        -4.7798      11.1419
   28       4.7291        2.2812       2.4478        -6.3734      11.1025
   31      -0.2571       -0.9613       0.7043        -1.2216       0.9645
   41     200.0742       -0.0034     200.0776         0.0021     200.0721
 Sum      221.1977      -18.0190     239.2166       -24.0432     245.2408

 Contributions to Isotropic shielding for atom   11 (   221.1637 ppm):
                         Standard Origin              Atomic Origin
 NLMO      Total    Paramagnetic  Diamagnetic   Paramagnetic  Diamagnetic
   23      -0.5444        0.2338      -0.7782        -1.2644       0.7200
   24       4.6548      -11.4922      16.1470        -3.3830       8.0379
   25       0.3150       -0.1036       0.4187        -0.7349       1.0499
   28      -0.2360       -0.8160       0.5800        -1.1962       0.9602
   29       5.8216       -3.2814       9.1031        -5.2686      11.0902
   30       6.1986       -4.4071      10.6057        -4.9172      11.1158
   31       4.6588        2.2494       2.4095        -6.4534      11.1122
   42     200.0747       -0.0038     200.0785         0.0023     200.0724
 Sum      220.9431      -17.6210     238.5642       -23.2154     244.1585

 Contributions to Isotropic shielding for atom   12 (    32.7507 ppm):
                         Standard Origin              Atomic Origin
 NLMO      Total    Paramagnetic  Diamagnetic   Paramagnetic  Diamagnetic
    1       1.3333        0.3053       1.0279         0.3274       1.0058
    2      26.4519        0.1204      26.3315         0.4134      26.0385
    3       1.9342        2.4281      -0.4939         0.1057       1.8286
    4       2.1210        0.5637       1.5572         0.2439       1.8771
 Sum       31.8404        3.4176      28.4228         1.0904      30.7500

 Contributions to Isotropic shielding for atom   13 (    32.5762 ppm):
                         Standard Origin              Atomic Origin
 NLMO      Total    Paramagnetic  Diamagnetic   Paramagnetic  Diamagnetic
    1       1.2649        0.5299       0.7350         0.2336       1.0313
    2       1.9337        2.3565      -0.4228         0.0972       1.8365
    3      26.4145        0.0700      26.3446         0.4292      25.9853
    4       2.0887        0.7693       1.3194         0.1947       1.8940
 Sum       31.7018        3.7257      27.9761         0.9547      30.7471

 Contributions to Isotropic shielding for atom   14 (    32.0411 ppm):
                         Standard Origin              Atomic Origin
 NLMO      Total    Paramagnetic  Diamagnetic   Paramagnetic  Diamagnetic
    1       1.6091       -1.2850       2.8941         0.7198       0.8893
    2       1.9579        0.8838       1.0741         0.1360       1.8219
    3       1.9598        1.1373       0.8226         0.1017       1.8581
    4      26.0084        0.4029      25.6055         0.3863      25.6220
 Sum       31.5352        1.1390      30.3962         1.3438      30.1914

 Contributions to Isotropic shielding for atom   15 (    32.4736 ppm):
                         Standard Origin              Atomic Origin
 NLMO      Total    Paramagnetic  Diamagnetic   Paramagnetic  Diamagnetic
    1       0.7862        2.2978      -1.5116        -0.2696       1.0558
    3       0.2168       -0.3073       0.5241        -0.7904       1.0072
    5       1.2397        1.3272      -0.0876         0.2556       0.9841
    6       1.2712        1.1897       0.0815         0.2886       0.9826
    7      26.6031       -0.3379      26.9410         0.4993      26.1037
   19       0.1329        0.0602       0.0727        -0.9137       1.0467
   21       0.0969        0.1079      -0.0110        -0.9764       1.0733
 Sum       30.3468        4.3376      26.0092        -1.9067      32.2535

 Contributions to Isotropic shielding for atom   16 (    31.8842 ppm):
                         Standard Origin              Atomic Origin
 NLMO      Total    Paramagnetic  Diamagnetic   Paramagnetic  Diamagnetic
    8       1.0368        0.2654       0.7714        -0.1369       1.1737
    9       0.6200        0.8680      -0.2480        -0.4503       1.0703
   10       0.6848        1.0030      -0.3182        -0.8919       1.5767
   11      26.8265        0.2778      26.5487         0.7835      26.0430
   21       0.1909       -0.4796       0.6705        -0.8735       1.0644
   23       0.0444       -0.7485       0.7929        -0.9846       1.0291
   27      -0.3424       -1.4462       1.1038        -1.0477       0.7053
 Sum       29.0610       -0.2601      29.3211        -3.6014      32.6624

 Contributions to Isotropic shielding for atom   17 (    32.3858 ppm):
                         Standard Origin              Atomic Origin
 NLMO      Total    Paramagnetic  Diamagnetic   Paramagnetic  Diamagnetic
   10       0.1402       -0.5265       0.6667        -1.2186       1.3588
   12       1.3991        0.0205       1.3785         0.4877       0.9113
   13       1.1192        0.8888       0.2304         0.2104       0.9087
   14      26.2637        0.2211      26.0426         0.4158      25.8480
   15       2.0461        1.4109       0.6352         0.3150       1.7311
 Sum       30.9683        2.0148      28.9535         0.2103      30.7579

 Contributions to Isotropic shielding for atom   18 (    32.4037 ppm):
                         Standard Origin              Atomic Origin
 NLMO      Total    Paramagnetic  Diamagnetic   Paramagnetic  Diamagnetic
   12       1.3030        0.5461       0.7570         0.3600       0.9430
   13       1.0046        1.4417      -0.4370        -0.0937       1.0983
   14       2.1297        1.1633       0.9665         0.3402       1.7895
   15      26.4289       -0.0220      26.4509         0.4244      26.0046
   19       0.2084       -0.4202       0.6286        -0.8129       1.0213
   24       0.0291       -0.7007       0.7298        -1.0169       1.0460
   30      -0.3808       -1.6397       1.2589        -1.0300       0.6492
 Sum       30.7230        0.3684      30.3545        -1.8290      32.5519

 Contributions to Isotropic shielding for atom   19 (    32.9271 ppm):
                         Standard Origin              Atomic Origin
 NLMO      Total    Paramagnetic  Diamagnetic   Paramagnetic  Diamagnetic
    8       1.3356        0.8585       0.4772         0.4668       0.8688
   12       1.2060        0.8402       0.3658         0.2138       0.9922
   16       1.0286        1.3607      -0.3321         0.0340       0.9946
   17      26.5353        0.0703      26.4650         0.4465      26.0888
   26      -0.0707       -1.2156       1.1448        -0.9475       0.8768
   29      -0.0715       -1.3437       1.2722        -0.9551       0.8836
 Sum       29.9633        0.5704      29.3929        -0.7415      30.7047

 Contributions to Isotropic shielding for atom   20 (    32.3969 ppm):
                         Standard Origin              Atomic Origin
 NLMO      Total    Paramagnetic  Diamagnetic   Paramagnetic  Diamagnetic
    1      -0.0818       -0.0858       0.0039        -1.0833       1.0014
    3      -0.0844       -1.0244       0.9400        -0.9869       0.9026
    5       1.0274        1.2722      -0.2448         0.1325       0.8950
   13       1.2593        0.5643       0.6950         0.2359       1.0234
   18      26.4520        0.0093      26.4427         0.4877      25.9643
   19       2.0231        1.7766       0.2465         0.2962       1.7269
 Sum       30.5956        2.5122      28.0834        -0.9179      31.5136

 Contributions to Isotropic shielding for atom   21 (    32.5703 ppm):
                         Standard Origin              Atomic Origin
 NLMO      Total    Paramagnetic  Diamagnetic   Paramagnetic  Diamagnetic
    5       1.1886        0.7704       0.4182         0.2191       0.9695
   13       1.3988        0.0502       1.3486         0.4087       0.9901
   18       1.9549        1.9725      -0.0175         0.1794       1.7755
   19      26.5569        0.1091      26.4478         0.4312      26.1257
 Sum       31.0992        2.9022      28.1970         1.2384      29.8608

 Contributions to Isotropic shielding for atom   22 (    32.9063 ppm):
                         Standard Origin              Atomic Origin
 NLMO      Total    Paramagnetic  Diamagnetic   Paramagnetic  Diamagnetic
    1      -0.0764       -0.1767       0.1003        -1.0519       0.9755
    2      -0.1164       -1.1771       1.0607        -1.0050       0.8885
    6       1.0317        1.3805      -0.3489         0.0201       1.0115
    9       1.3549        0.5159       0.8390         0.4467       0.9081
   10      -0.2186        0.3504      -0.5690        -1.3971       1.1784
   20      26.5428        0.0825      26.4603         0.4869      26.0558
   21       2.0430        1.6722       0.3707         0.3322       1.7108
 Sum       30.5608        2.6477      27.9131        -2.1679      32.7287

 Contributions to Isotropic shielding for atom   23 (    32.4827 ppm):
                         Standard Origin              Atomic Origin
 NLMO      Total    Paramagnetic  Diamagnetic   Paramagnetic  Diamagnetic
    6       1.1595        0.9115       0.2480         0.0992       1.0603
    9       1.4909        0.1992       1.2917         0.5493       0.9416
   20       1.8650        1.7366       0.1284         0.1012       1.7639
   21      26.4382        0.1356      26.3026         0.4458      25.9924
 Sum       30.9536        2.9828      27.9708         1.1954      29.7582

 Contributions to Isotropic shielding for atom   24 (    35.2647 ppm):
                         Standard Origin              Atomic Origin
 NLMO      Total    Paramagnetic  Diamagnetic   Paramagnetic  Diamagnetic
    9      -0.1804        0.1424      -0.3228        -1.1619       0.9815
   10       1.3840        2.7075      -1.3236         0.6681       0.7159
   22      23.0697       -0.5745      23.6442        -0.0950      23.1647
   43       4.1679        0.5689       3.5990         2.2232       1.9447
   44       5.6236        2.4412       3.1824         2.4528       3.1708
 Sum       34.0648        5.2855      28.7792         4.0872      29.9775

 Contributions to Isotropic shielding for atom   25 (    32.0703 ppm):
                         Standard Origin              Atomic Origin
 NLMO      Total    Paramagnetic  Diamagnetic   Paramagnetic  Diamagnetic
   10       0.1352       -0.4288       0.5640        -1.2510       1.3862
   16       1.7032       -0.5004       2.2036         0.7740       0.9292
   23       0.9690        1.3746      -0.4056        -0.0050       0.9740
   24       0.9111        1.5255      -0.6144        -0.0877       0.9988
   25      26.1944        0.1301      26.0642         0.3993      25.7951
   27       0.2028       -0.8437       1.0465        -0.7703       0.9731
   30       0.2049       -0.9018       1.1067        -0.7682       0.9731
   43      -0.6035        0.0230      -0.6265         0.5155      -1.1190
 Sum       29.7171        0.3786      29.3385        -1.1933      30.9104

 Contributions to Isotropic shielding for atom   26 (    32.6743 ppm):
                         Standard Origin              Atomic Origin
 NLMO      Total    Paramagnetic  Diamagnetic   Paramagnetic  Diamagnetic
   23       1.5021       -0.6176       2.1197         0.5476       0.9545
   26      26.4224        0.2570      26.1654         0.4123      26.0101
   27       2.0802        0.7091       1.3712         0.2820       1.7982
   28       1.9060        2.2749      -0.3689         0.0966       1.8095
 Sum       31.9108        2.6233      29.2874         1.3385      30.5722

 Contributions to Isotropic shielding for atom   27 (    32.1298 ppm):
                         Standard Origin              Atomic Origin
 NLMO      Total    Paramagnetic  Diamagnetic   Paramagnetic  Diamagnetic
    8      -0.1099        0.1270      -0.2368        -1.1377       1.0278
   10      -0.0053        0.0386      -0.0439        -1.2947       1.2893
   23       1.5530       -1.1095       2.6626         0.5341       1.0189
   26       2.0393        0.7586       1.2807         0.2158       1.8235
   27      26.2828        0.2773      26.0055         0.3899      25.8929
   28       1.8444        1.8264       0.0180        -0.0491       1.8935
 Sum       31.6044        1.9182      29.6861        -1.3417      32.9460

 Contributions to Isotropic shielding for atom   28 (    32.4690 ppm):
                         Standard Origin              Atomic Origin
 NLMO      Total    Paramagnetic  Diamagnetic   Paramagnetic  Diamagnetic
   23       1.2486        0.4156       0.8330         0.2508       0.9978
   24      -0.2215        0.7294      -0.9510        -1.2909       1.0694
   26       1.9307        1.9440      -0.0133         0.0907       1.8400
   27       2.0097        1.5975       0.4122         0.1247       1.8850
   28      26.3778       -0.0015      26.3793         0.4577      25.9201
   31      -0.1455       -1.1170       0.9715        -1.0132       0.8677
 Sum       31.1998        3.5681      27.6318        -1.3802      32.5800

 Contributions to Isotropic shielding for atom   29 (    32.6610 ppm):
                         Standard Origin              Atomic Origin
 NLMO      Total    Paramagnetic  Diamagnetic   Paramagnetic  Diamagnetic
   24       1.5359       -0.7663       2.3022         0.5835       0.9524
   29      26.3971        0.2664      26.1307         0.4229      25.9741
   30       2.0595        0.8726       1.1869         0.2657       1.7938
   31       1.8996        2.2838      -0.3842         0.0855       1.8141
 Sum       31.8921        2.6565      29.2356         1.3576      30.5345

 Contributions to Isotropic shielding for atom   30 (    32.2719 ppm):
                         Standard Origin              Atomic Origin
 NLMO      Total    Paramagnetic  Diamagnetic   Paramagnetic  Diamagnetic
   12      -0.0606        0.2039      -0.2645        -1.0956       1.0350
   24       1.5452       -1.1274       2.6726         0.5267       1.0185
   29       2.0192        0.8710       1.1482         0.1929       1.8264
   30      26.3251        0.2419      26.0832         0.3946      25.9306
   31       1.8337        1.9473      -0.1136        -0.0649       1.8987
 Sum       31.6627        2.1367      29.5260        -0.0464      31.7091

 Contributions to Isotropic shielding for atom   31 (    32.4700 ppm):
                         Standard Origin              Atomic Origin
 NLMO      Total    Paramagnetic  Diamagnetic   Paramagnetic  Diamagnetic
   23      -0.2363        0.8059      -1.0422        -1.3057       1.0694
   24       1.2896        0.2435       1.0461         0.2888       1.0008
   28      -0.1433       -0.9627       0.8194        -1.0126       0.8693
   29       1.9173        1.9434      -0.0261         0.0740       1.8433
   30       1.9870        1.7430       0.2439         0.1046       1.8823
   31      26.3637       -0.0006      26.3643         0.4552      25.9085
 Sum       31.1780        3.7726      27.4054        -1.3956      32.5736
 
 1\1\GINC-COMPUTE-10-7\SP\RHF\STO-3G\C10H20O1\YTSAI.IQUIR\24-May-2020\0
 \\# rhf/STO-3G nmr pop=nbo\\comment\\0,1\C,0,2.437737769,0.962448499,-
 1.725845465\C,0,0.973766797,0.728849986,-2.105989698\C,0,0.275705487,-
 1.113344701,-0.438927762\C,0,-0.170318,1.323891685,0.100943904\C,0,-0.
 669618392,-0.12556905,0.284664911\C,0,0.035563647,1.687446399,-1.36923
 9568\C,0,0.528138639,-0.725596271,-1.90049412\O,0,1.51128583,-1.205576
 406,0.263950311\C,0,-0.865287665,-0.471268576,1.795651142\C,0,-1.33626
 5112,-1.916887846,2.002612499\C,0,-1.869753241,0.466195492,2.47989633\
 H,0,3.091425373,0.257569867,-2.250268994\H,0,2.746782568,1.974037556,-
 2.011393387\H,0,2.618438629,0.858154556,-0.653154081\H,0,0.89678331,0.
 945962907,-3.179932348\H,0,-0.168375031,-2.114876704,-0.436099578\H,0,
 0.761104852,1.47535525,0.659066253\H,0,-0.899224868,2.031400565,0.5102
 7031\H,0,-1.650980857,-0.196781571,-0.206304297\H,0,0.409749849,2.7155
 87173,-1.443267014\H,0,-0.941484759,1.678329591,-1.870042775\H,0,1.273
 277533,-1.398637111,-2.342137298\H,0,-0.405154487,-0.87758951,-2.45868
 8721\H,0,2.068688835,-1.850525538,-0.203688042\H,0,0.094731441,-0.3568
 48093,2.315549153\H,0,-2.247514175,-2.12163538,1.430685256\H,0,-0.5697
 46644,-2.636524449,1.70050679\H,0,-1.550243623,-2.11122917,3.059436968
 \H,0,-2.825134882,0.481642291,1.944813024\H,0,-1.489157613,1.489971562
 ,2.537989259\H,0,-2.064921209,0.146046997,3.50943704\\Version=EM64L-G0
 9RevC.01\State=1-A\HF=-459.6196253\RMSD=7.323e-09\Dipole=-0.1241569,-0
 .2250693,-0.4217924\Quadrupole=-0.3388726,0.961005,-0.6221323,-1.01900
 25,-0.8234516,1.2314517\PG=C01 [X(C10H20O1)]\\@


 THE MORE PROGRESS PHYSICAL SCIENCES MAKE, THE MORE THEY TEND TO ENTER
 THE DOMAIN OF MATHEMATICS, WHICH IS A KIND OF CENTRE TO WHICH THEY ALL
 CONVERGE.  WE MAY EVEN JUDGE THE DEGREE OF PERFECTION TO WHICH A 
 SCIENCE HAS ARRIVED BY THE FACILITY WITH WHICH IT MAY BE SUBMITTED
 TO CALCULATION.

                               -- ADOLPHE QUETELET, 1796-1874
 Job cpu time:  0 days  0 hours  0 minutes 36.9 seconds.
 File lengths (MBytes):  RWF=      5 Int=      0 D2E=      0 Chk=      1 Scr=      1
 Normal termination of Gaussian 09 at Sun May 24 02:07:40 2020.
