 Entering Gaussian System, Link 0=g09
 Input=/home/ytsai.iquir/menthol/03_menthol_M0112_MMFF_NMR_rhf_STO-3G_nbo.gjc
 Output=/home/ytsai.iquir/menthol/03_menthol_M0112_MMFF_NMR_rhf_STO-3G_nbo.log
 Initial command:
 /share/apps/Gaussian09/EM64T.SSE4.2-enabled/g09/l1.exe /tmp/Gau-135623.inp -scrdir=/tmp/
 Entering Link 1 = /share/apps/Gaussian09/EM64T.SSE4.2-enabled/g09/l1.exe PID=    135624.
  
 Copyright (c) 1988,1990,1992,1993,1995,1998,2003,2009,2011,
            Gaussian, Inc.  All Rights Reserved.
  
 This is part of the Gaussian(R) 09 program.  It is based on
 the Gaussian(R) 03 system (copyright 2003, Gaussian, Inc.),
 the Gaussian(R) 98 system (copyright 1998, Gaussian, Inc.),
 the Gaussian(R) 94 system (copyright 1995, Gaussian, Inc.),
 the Gaussian 92(TM) system (copyright 1992, Gaussian, Inc.),
 the Gaussian 90(TM) system (copyright 1990, Gaussian, Inc.),
 the Gaussian 88(TM) system (copyright 1988, Gaussian, Inc.),
 the Gaussian 86(TM) system (copyright 1986, Carnegie Mellon
 University), and the Gaussian 82(TM) system (copyright 1983,
 Carnegie Mellon University). Gaussian is a federally registered
 trademark of Gaussian, Inc.
  
 This software contains proprietary and confidential information,
 including trade secrets, belonging to Gaussian, Inc.
  
 This software is provided under written license and may be
 used, copied, transmitted, or stored only in accord with that
 written license.
  
 The following legend is applicable only to US Government
 contracts under FAR:
  
                    RESTRICTED RIGHTS LEGEND
  
 Use, reproduction and disclosure by the US Government is
 subject to restrictions as set forth in subparagraphs (a)
 and (c) of the Commercial Computer Software - Restricted
 Rights clause in FAR 52.227-19.
  
 Gaussian, Inc.
 340 Quinnipiac St., Bldg. 40, Wallingford CT 06492
  
  
 ---------------------------------------------------------------
 Warning -- This program may not be used in any manner that
 competes with the business of Gaussian, Inc. or will provide
 assistance to any competitor of Gaussian, Inc.  The licensee
 of this program is prohibited from giving any competitor of
 Gaussian, Inc. access to this program.  By using this program,
 the user acknowledges that Gaussian, Inc. is engaged in the
 business of creating and licensing software in the field of
 computational chemistry and represents and warrants to the
 licensee that it is not a competitor of Gaussian, Inc. and that
 it will not use this program in any manner prohibited above.
 ---------------------------------------------------------------
  

 Cite this work as:
 Gaussian 09, Revision C.01,
 M. J. Frisch, G. W. Trucks, H. B. Schlegel, G. E. Scuseria, 
 M. A. Robb, J. R. Cheeseman, G. Scalmani, V. Barone, B. Mennucci, 
 G. A. Petersson, H. Nakatsuji, M. Caricato, X. Li, H. P. Hratchian, 
 A. F. Izmaylov, J. Bloino, G. Zheng, J. L. Sonnenberg, M. Hada, 
 M. Ehara, K. Toyota, R. Fukuda, J. Hasegawa, M. Ishida, T. Nakajima, 
 Y. Honda, O. Kitao, H. Nakai, T. Vreven, J. A. Montgomery, Jr., 
 J. E. Peralta, F. Ogliaro, M. Bearpark, J. J. Heyd, E. Brothers, 
 K. N. Kudin, V. N. Staroverov, T. Keith, R. Kobayashi, J. Normand, 
 K. Raghavachari, A. Rendell, J. C. Burant, S. S. Iyengar, J. Tomasi, 
 M. Cossi, N. Rega, J. M. Millam, M. Klene, J. E. Knox, J. B. Cross, 
 V. Bakken, C. Adamo, J. Jaramillo, R. Gomperts, R. E. Stratmann, 
 O. Yazyev, A. J. Austin, R. Cammi, C. Pomelli, J. W. Ochterski, 
 R. L. Martin, K. Morokuma, V. G. Zakrzewski, G. A. Voth, 
 P. Salvador, J. J. Dannenberg, S. Dapprich, A. D. Daniels, 
 O. Farkas, J. B. Foresman, J. V. Ortiz, J. Cioslowski, 
 and D. J. Fox, Gaussian, Inc., Wallingford CT, 2010.
 
 ******************************************
 Gaussian 09:  EM64L-G09RevC.01 23-Sep-2011
                 3-Aug-2021 
 ******************************************
 %nprocshared=4
 Will use up to    4 processors via shared memory.
 ------------------------
 # rhf/STO-3G nmr pop=nbo
 ------------------------
 1/38=1/1;
 2/12=2,17=6,18=5,40=1/2;
 3/6=3,11=1,16=1,25=1,30=1,116=1/1,2,8,3;
 4//1;
 5/5=2,38=5/2;
 8/6=1,10=90,11=11/1;
 10/13=100,45=16/2;
 6/7=2,8=2,9=2,10=2,28=1,64=1/1,7;
 99/9=1/99;
 -------
 comment
 -------
 Charge =  0 Multiplicity = 1
 Symbolic Z-Matrix:
 6                    -1.73801  -0.32896  -3.26851 
 6                    -1.24706  -0.23827  -1.82542 
 6                     0.85013  -0.78287  -0.41955 
 6                    -0.50876   1.30638   0.02547 
 6                     0.1132    0.03583   0.66381 
 6                    -0.85878   1.1875   -1.45816 
 6                    -0.06779  -1.187    -1.58729 
 8                     1.39457  -1.98717   0.10876 
 6                     0.97766   0.43265   1.90888 
 6                     1.60488  -0.75581   2.64574 
 6                     0.15378   1.23628   2.93011 
 1                    -2.61625   0.30745  -3.41991 
 1                    -0.96396  -0.00888  -3.97429 
 1                    -2.02148  -1.35694  -3.51776 
 1                    -2.0763   -0.54755  -1.17476 
 1                     1.68758  -0.18533  -0.80128 
 1                     0.16418   2.16565   0.1388 
 1                    -1.42351   1.55642   0.57838 
 1                    -0.70713  -0.59364   1.03932 
 1                     0.00424   1.50144  -2.06003 
 1                    -1.67001   1.88687  -1.69347 
 1                     0.55528  -1.26029  -2.48898 
 1                    -0.46074  -2.20115  -1.43313 
 1                     1.88633  -2.42671  -0.6059 
 1                     1.79911   1.07672   1.56792 
 1                     2.02578  -0.44557   3.60893 
 1                     0.86563  -1.53952   2.84086 
 1                     2.43626  -1.1832    2.07876 
 1                    -0.71978   0.66714   3.2658 
 1                    -0.1949    2.18633   2.51493 
 1                     0.75583   1.48219   3.81195 
 
                          Input orientation:                          
 ---------------------------------------------------------------------
 Center     Atomic      Atomic             Coordinates (Angstroms)
 Number     Number       Type             X           Y           Z
 ---------------------------------------------------------------------
      1          6           0       -1.738011   -0.328959   -3.268512
      2          6           0       -1.247059   -0.238266   -1.825416
      3          6           0        0.850130   -0.782872   -0.419545
      4          6           0       -0.508761    1.306383    0.025465
      5          6           0        0.113198    0.035825    0.663812
      6          6           0       -0.858778    1.187502   -1.458164
      7          6           0       -0.067785   -1.187001   -1.587292
      8          8           0        1.394574   -1.987167    0.108762
      9          6           0        0.977664    0.432652    1.908877
     10          6           0        1.604881   -0.755808    2.645740
     11          6           0        0.153782    1.236284    2.930115
     12          1           0       -2.616253    0.307450   -3.419911
     13          1           0       -0.963965   -0.008880   -3.974291
     14          1           0       -2.021479   -1.356940   -3.517761
     15          1           0       -2.076301   -0.547554   -1.174756
     16          1           0        1.687578   -0.185335   -0.801280
     17          1           0        0.164183    2.165653    0.138803
     18          1           0       -1.423507    1.556424    0.578382
     19          1           0       -0.707127   -0.593644    1.039322
     20          1           0        0.004244    1.501438   -2.060027
     21          1           0       -1.670015    1.886874   -1.693469
     22          1           0        0.555275   -1.260288   -2.488981
     23          1           0       -0.460737   -2.201154   -1.433127
     24          1           0        1.886333   -2.426714   -0.605904
     25          1           0        1.799112    1.076720    1.567919
     26          1           0        2.025776   -0.445569    3.608928
     27          1           0        0.865634   -1.539515    2.840864
     28          1           0        2.436257   -1.183196    2.078760
     29          1           0       -0.719775    0.667141    3.265805
     30          1           0       -0.194897    2.186327    2.514932
     31          1           0        0.755830    1.482188    3.811951
 ---------------------------------------------------------------------
                    Distance matrix (angstroms):
                    1          2          3          4          5
     1  C    0.000000
     2  C    1.527019   0.000000
     3  C    3.875710   2.582880   0.000000
     4  C    3.877588   2.521267   2.531720   0.000000
     5  C    4.361562   2.849857   1.544991   1.551979   0.000000
     6  C    2.519933   1.522646   2.807395   1.528987   2.602668
     7  C    2.520396   1.532151   1.539325   3.002068   2.568176
     8  O    4.895787   3.711862   1.423325   3.804878   2.458150
     9  C    5.895787   4.398235   2.629699   2.553450   1.566831
    10  C    6.807019   5.328475   3.156953   3.947905   2.603812
    11  C    6.667221   5.172207   3.972671   2.980078   2.564931
    12  H    1.095101   2.171385   4.712410   4.160530   4.919398
    13  H    1.095318   2.179548   4.065246   4.234995   4.761752
    14  H    1.095091   2.171449   4.263171   4.683595   4.897162
    15  H    2.132144   1.098481   3.031455   2.708284   2.917974
    16  H    4.224041   3.108657   1.097311   2.780761   2.161961
    17  H    4.631547   3.410071   3.078324   1.097289   2.194174
    18  H    4.295599   3.005044   3.411391   1.097724   2.163558
    19  H    4.437366   2.936757   2.142230   2.162720   1.100079
    20  H    2.801114   2.155777   2.936797   2.156502   3.095027
    21  H    2.719430   2.170834   3.886072   2.154116   3.487550
    22  H    2.595035   2.175605   2.144162   3.747321   3.437361
    23  H    2.916365   2.150610   2.181111   3.799029   3.119396
    24  H    4.962453   4.011815   1.952092   4.480080   3.289421
    25  H    6.154530   4.745847   2.882475   2.785352   2.177883
    26  H    7.840846   6.347166   4.210049   4.725930   3.544488
    27  H    6.750473   5.284968   3.347091   4.232560   2.790593
    28  H    6.837219   5.449981   2.986233   4.368884   2.980720
    29  H    6.687774   5.197914   4.260158   3.309525   2.804063
    30  H    6.492772   5.081763   4.303415   2.658995   2.854159
    31  H    7.722205   6.225065   4.800515   3.995944   3.523594
                    6          7          8          9         10
     6  C    0.000000
     7  C    2.506114   0.000000
     8  O    4.196591   2.378100   0.000000
     9  C    3.908873   3.992423   3.044627   0.000000
    10  C    5.166052   4.571903   2.827850   1.532581   0.000000
    11  C    4.503848   5.131117   4.459847   1.538678   2.480924
    12  H    2.776987   3.476574   5.814081   6.428678   7.465963
    13  H    2.788062   2.808714   5.113477   6.211002   7.140146
    14  H    3.473902   2.751819   5.021779   6.453363   7.176391
    15  H    2.138481   2.147840   3.970753   4.449304   5.309488
    16  H    2.966497   2.168513   2.039761   2.868944   3.494885
    17  H    2.133901   3.778028   4.331360   2.607337   4.110387
    18  H    2.145354   3.748934   4.551831   2.966261   4.334919
    19  H    3.071305   2.767658   2.687936   2.155907   2.819975
    20  H    1.097999   2.730636   4.336707   4.223986   5.459070
    21  H    1.096629   3.468014   5.258130   4.701262   6.044621
    22  H    3.008954   1.098462   2.825074   4.731345   5.265124
    23  H    3.412045   1.098493   2.421857   4.491651   4.795097
    24  H    4.617850   2.513681   0.972510   3.914815   3.666651
    25  H    4.029123   4.308723   3.417630   1.098113   2.134849
    26  H    6.054997   5.650966   3.876351   2.181738   1.095961
    27  H    5.375115   4.539174   2.818608   2.184169   1.094878
    28  H    5.383985   4.439614   2.369043   2.183419   1.093303
    29  H    4.754575   5.235979   4.634948   2.185758   2.795226
    30  H    4.150167   5.312602   5.072881   2.194897   3.451444
    31  H    5.519775   6.079040   5.114492   2.184588   2.662623
                   11         12         13         14         15
    11  C    0.000000
    12  H    6.989896   0.000000
    13  H    7.104267   1.771288   0.000000
    14  H    7.282284   1.770177   1.773139   0.000000
    15  H    5.000531   2.462377   3.060206   2.479472   0.000000
    16  H    4.277480   5.061919   4.138818   4.744368   3.799668
    17  H    2.941982   4.883460   4.787364   5.527769   3.755889
    18  H    2.849733   4.355332   4.836133   5.061980   2.815379
    19  H    2.768556   4.933709   5.054130   4.803867   2.603632
    20  H    4.999419   3.184634   2.623527   3.794584   3.051351
    21  H    5.012687   2.523994   3.048695   3.738168   2.522017
    22  H    5.980023   3.658282   2.465818   2.776218   3.026611
    23  H    5.588514   3.858323   3.393645   2.737574   2.326198
    24  H    5.377984   5.972234   5.031516   4.989421   4.422365
    25  H    2.141996   6.705645   6.287226   6.810562   5.017904
    26  H    2.606488   8.456952   8.162993   8.246245   6.302465
    27  H    2.867012   7.398116   7.220569   6.985761   5.075842
    28  H    3.433421   7.614805   7.041303   7.156999   5.599338
    29  H    1.095314   6.958793   7.275687   7.197784   4.799399
    30  H    1.093862   6.679484   6.893505   7.230804   4.962619
    31  H    1.095704   8.065406   8.112123   8.336592   6.083426
                   16         17         18         19         20
    16  H    0.000000
    17  H    2.954933   0.000000
    18  H    3.823093   1.756459   0.000000
    19  H    3.047809   3.030485   2.312674   0.000000
    20  H    2.695044   2.302524   3.000450   3.808068   0.000000
    21  H    4.045179   2.607531   2.308954   3.814219   1.756721
    22  H    2.299124   4.335352   4.610658   3.806179   2.848643
    23  H    3.012975   4.683001   4.369495   2.959357   3.783967
    24  H    2.258640   4.960870   5.312529   3.576723   4.592071
    25  H    2.686694   2.429227   3.405080   3.057902   4.069881
    26  H    4.430805   4.725016   5.008966   3.754139   6.325700
    27  H    3.971726   4.639120   4.465852   2.571732   5.831648
    28  H    3.138611   4.487822   4.965323   3.362866   5.500137
    29  H    4.802420   3.578416   2.916900   2.558704   5.439186
    30  H    4.490629   2.403197   2.378337   3.188737   4.630225
    31  H    4.993063   3.782749   3.900127   3.759893   5.919914
                   21         22         23         24         25
    21  H    0.000000
    22  H    3.935656   0.000000
    23  H    4.271078   1.741362   0.000000
    24  H    5.695389   2.584230   2.498783   0.000000
    25  H    4.829890   4.844294   4.985745   4.123974   0.000000
    26  H    6.871286   6.325396   5.889579   4.659311   2.556258
    27  H    6.223329   5.346171   4.523717   3.702588   3.055561
    28  H    6.365258   4.940475   4.664993   3.009348   2.402942
    29  H    5.194718   6.201476   5.511277   5.599452   3.065185
    30  H    4.469484   6.122178   5.908285   5.945694   2.470653
    31  H    6.029771   6.874820   6.523640   6.006246   2.507692
                   26         27         28         29         30
    26  H    0.000000
    27  H    1.769906   0.000000
    28  H    1.747570   1.781747   0.000000
    29  H    2.982265   2.750168   3.846213   0.000000
    30  H    3.613182   3.887525   4.297312   1.774044   0.000000
    31  H    2.317375   3.175808   3.596116   1.772001   1.755549
                   31
    31  H    0.000000
 Stoichiometry    C10H20O
 Framework group  C1[X(C10H20O)]
 Deg. of freedom    87
 Full point group                 C1      NOp   1
 Largest Abelian subgroup         C1      NOp   1
 Largest concise Abelian subgroup C1      NOp   1
                         Standard orientation:                         
 ---------------------------------------------------------------------
 Center     Atomic      Atomic             Coordinates (Angstroms)
 Number     Number       Type             X           Y           Z
 ---------------------------------------------------------------------
      1          6           0       -3.715493   -0.172175   -0.284035
      2          6           0       -2.194597   -0.241780   -0.401585
      3          6           0       -0.095560    1.027903    0.406635
      4          6           0       -0.113971   -1.499818    0.265588
      5          6           0        0.643783   -0.210113   -0.148061
      6          6           0       -1.616482   -1.330251    0.492543
      7          6           0       -1.556974    1.111268   -0.069643
      8          8           0        0.534399    2.240596    0.008667
      9          6           0        2.153660   -0.326010    0.254181
     10          6           0        3.008369    0.880101   -0.150259
     11          6           0        2.800214   -1.583836   -0.351933
     12          1           0       -4.170907   -1.124008   -0.577053
     13          1           0       -4.026760    0.048624    0.742650
     14          1           0       -4.119560    0.608373   -0.937258
     15          1           0       -1.955319   -0.490034   -1.444549
     16          1           0       -0.068801    0.990059    1.502966
     17          1           0        0.313633   -1.922551    1.183463
     18          1           0        0.035180   -2.252896   -0.519030
     19          1           0        0.616355   -0.135521   -1.245265
     20          1           0       -1.797282   -1.077258    1.545590
     21          1           0       -2.117530   -2.289448    0.315101
     22          1           0       -2.131799    1.626106    0.712110
     23          1           0       -1.636471    1.760920   -0.951866
     24          1           0        0.055000    2.974032    0.430596
     25          1           0        2.213946   -0.418129    1.346762
     26          1           0        4.076256    0.665805   -0.028499
     27          1           0        2.839903    1.155699   -1.196405
     28          1           0        2.801955    1.746215    0.484211
     29          1           0        2.718534   -1.580594   -1.444192
     30          1           0        2.337425   -2.501027    0.023728
     31          1           0        3.863352   -1.640868   -0.092991
 ---------------------------------------------------------------------
 Rotational constants (GHZ):      1.8161559      0.7030579      0.5400316
 Standard basis: STO-3G (5D, 7F)
 There are    75 symmetry adapted basis functions of A   symmetry.
 Integral buffers will be    131072 words long.
 Raffenetti 1 integral format.
 Two-electron integral symmetry is turned on.
    75 basis functions,   225 primitive gaussians,    75 cartesian basis functions
    44 alpha electrons       44 beta electrons
       nuclear repulsion energy       687.5808841569 Hartrees.
 NAtoms=   31 NActive=   31 NUniq=   31 SFac= 1.00D+00 NAtFMM=   60 NAOKFM=F Big=F
 One-electron integrals computed using PRISM.
 NBasis=    75 RedAO= T  NBF=    75
 NBsUse=    75 1.00D-06 NBFU=    75
 Harris functional with IExCor=  205 diagonalized for initial guess.
 ExpMin= 1.69D-01 ExpMax= 1.31D+02 ExpMxC= 1.31D+02 IAcc=1 IRadAn=         1 AccDes= 0.00D+00
 HarFok:  IExCor=  205 AccDes= 0.00D+00 IRadAn=         1 IDoV= 1
 ScaDFX=  1.000000  1.000000  1.000000  1.000000
 FoFCou: FMM=F IPFlag=           0 FMFlag=      100000 FMFlg1=           0
         NFxFlg=           0 DoJE=T BraDBF=F KetDBF=T FulRan=T
         Omega=  0.000000  0.000000  1.000000  0.000000  0.000000 ICntrl=     500 IOpCl=  0
         NMat0=    1 NMatS0=    1 NMatT0=    0 NMatD0=    1 NMtDS0=    0 NMtDT0=    0
         I1Cent=           4 NGrid=           0.
 Petite list used in FoFCou.
 Initial guess orbital symmetries:
       Occupied  (A) (A) (A) (A) (A) (A) (A) (A) (A) (A) (A) (A)
                 (A) (A) (A) (A) (A) (A) (A) (A) (A) (A) (A) (A)
                 (A) (A) (A) (A) (A) (A) (A) (A) (A) (A) (A) (A)
                 (A) (A) (A) (A) (A) (A) (A) (A)
       Virtual   (A) (A) (A) (A) (A) (A) (A) (A) (A) (A) (A) (A)
                 (A) (A) (A) (A) (A) (A) (A) (A) (A) (A) (A) (A)
                 (A) (A) (A) (A) (A) (A) (A)
 The electronic state of the initial guess is 1-A.
 Requested convergence on RMS density matrix=1.00D-08 within 128 cycles.
 Requested convergence on MAX density matrix=1.00D-06.
 Requested convergence on             energy=1.00D-06.
 No special actions if energy rises.
 Keep R1 ints in memory in canonical form, NReq=4898789.
 SCF Done:  E(RHF) =  -459.608873180     A.U. after   10 cycles
             Convg  =    0.5023D-08             -V/T =  2.0089
 Range of M.O.s used for correlation:     1    75
 NBasis=    75 NAE=    44 NBE=    44 NFC=     0 NFV=     0
 NROrb=     75 NOA=    44 NOB=    44 NVA=    31 NVB=    31
          Differentiating once with respect to magnetic field using GIAOs.
          Electric field/nuclear overlap derivatives assumed to be zero.
          Keep R3 ints in memory in canonical form, NReq=4863575.
 FoFCou: FMM=F IPFlag=           0 FMFlag=           0 FMFlg1=           0
         NFxFlg=           0 DoJE=F BraDBF=F KetDBF=T FulRan=T
         Omega=  0.000000  0.000000  1.000000  0.000000  0.000000 ICntrl=    6100 IOpCl=  0
         NMat0=    1 NMatS0=    1 NMatT0=    0 NMatD0=    1 NMtDS0=    0 NMtDT0=    0
         I1Cent=           7 NGrid=          31.
 Symmetry not used in FoFCou.
          There are     3 degrees of freedom in the 1st order CPHF.  IDoFFX=0.
      3 vectors produced by pass  0 Test12= 4.55D-14 3.33D-08 XBig12= 8.25D+00 4.53D-01.
 AX will form     3 AO Fock derivatives at one time.
      3 vectors produced by pass  1 Test12= 4.55D-14 3.33D-08 XBig12= 1.39D-02 1.87D-02.
      3 vectors produced by pass  2 Test12= 4.55D-14 3.33D-08 XBig12= 1.05D-04 3.09D-03.
      3 vectors produced by pass  3 Test12= 4.55D-14 3.33D-08 XBig12= 2.07D-06 3.82D-04.
      3 vectors produced by pass  4 Test12= 4.55D-14 3.33D-08 XBig12= 1.72D-08 1.88D-05.
      3 vectors produced by pass  5 Test12= 4.55D-14 3.33D-08 XBig12= 2.27D-10 2.03D-06.
      3 vectors produced by pass  6 Test12= 4.55D-14 3.33D-08 XBig12= 2.17D-12 2.01D-07.
 Inverted reduced A of dimension    21 with in-core refinement.
 Calculating GIAO nuclear magnetic shielding tensors.
 SCF GIAO Magnetic shielding tensor (ppm):
      1  C    Isotropic =   221.1991   Anisotropy =    27.7487
   XX=   239.6722   YX=     1.1056   ZX=     2.1404
   XY=    -0.4789   YY=   212.9575   ZY=     1.0882
   XZ=    -0.5985   YZ=     3.6956   ZZ=   210.9676
   Eigenvalues:   209.3647   214.5343   239.6983
      2  C    Isotropic =   217.0424   Anisotropy =     9.3698
   XX=   222.9123   YX=     0.3730   ZX=     2.5644
   XY=     0.1823   YY=   218.2016   ZY=    -2.8010
   XZ=     1.8932   YZ=    -1.7803   ZZ=   210.0131
   Eigenvalues:   209.0578   218.7804   223.2889
      3  C    Isotropic =   187.9531   Anisotropy =    39.3948
   XX=   188.3040   YX=    13.8177   ZX=    -8.6295
   XY=     9.6402   YY=   206.9116   ZY=    -4.7050
   XZ=    -6.1263   YZ=    -7.2445   ZZ=   168.6436
   Eigenvalues:   166.0702   183.5727   214.2163
      4  C    Isotropic =   216.3755   Anisotropy =    18.2647
   XX=   227.0785   YX=     3.0242   ZX=    -0.0177
   XY=     3.4316   YY=   219.5777   ZY=    -5.8015
   XZ=    -0.8270   YZ=    -6.4037   ZZ=   202.4702
   Eigenvalues:   200.5034   220.0711   228.5519
      5  C    Isotropic =   209.8247   Anisotropy =    17.9938
   XX=   221.7886   YX=    -1.5319   ZX=    -0.3114
   XY=     0.9413   YY=   207.4728   ZY=     3.9507
   XZ=     1.8949   YZ=     1.0619   ZZ=   200.2127
   Eigenvalues:   199.3998   208.2538   221.8205
      6  C    Isotropic =   217.5474   Anisotropy =    17.0700
   XX=   224.7822   YX=    -3.5380   ZX=     2.5281
   XY=    -5.7256   YY=   217.6154   ZY=    -6.6665
   XZ=     4.1376   YZ=    -5.7045   ZZ=   210.2445
   Eigenvalues:   206.7063   217.0084   228.9274
      7  C    Isotropic =   213.1463   Anisotropy =    28.3074
   XX=   227.1852   YX=     9.1241   ZX=     6.2824
   XY=     7.7998   YY=   214.8320   ZY=    -0.0440
   XZ=     4.5332   YZ=    -2.4464   ZZ=   197.4218
   Eigenvalues:   196.0363   211.3847   232.0179
      8  O    Isotropic =   353.6288   Anisotropy =    74.8345
   XX=   359.4731   YX=   -44.3438   ZX=    -2.0938
   XY=   -21.2860   YY=   365.3499   ZY=    17.3989
   XZ=   -11.8623   YZ=    32.5476   ZZ=   336.0633
   Eigenvalues:   317.6167   339.7512   403.5184
      9  C    Isotropic =   210.9479   Anisotropy =    18.5478
   XX=   222.9440   YX=     1.4992   ZX=     2.0775
   XY=    -0.9026   YY=   208.3466   ZY=    -0.5524
   XZ=     3.5885   YZ=    -3.1423   ZZ=   201.5532
   Eigenvalues:   200.7253   208.8054   223.3131
     10  C    Isotropic =   220.7547   Anisotropy =    24.7862
   XX=   225.1484   YX=     8.3565   ZX=    -2.1220
   XY=     7.8993   YY=   229.7746   ZY=    -4.4369
   XZ=    -3.2675   YZ=    -7.4940   ZZ=   207.3412
   Eigenvalues:   205.8280   219.1573   237.2789
     11  C    Isotropic =   220.5462   Anisotropy =    26.2746
   XX=   222.2468   YX=    -8.2677   ZX=    -3.4069
   XY=    -8.3167   YY=   229.2182   ZY=     7.3798
   XZ=    -2.2794   YZ=    11.8302   ZZ=   210.1736
   Eigenvalues:   206.1466   217.4294   238.0626
     12  H    Isotropic =    32.4973   Anisotropy =    13.9531
   XX=    35.8445   YX=     5.8301   ZX=     2.8582
   XY=     5.4669   YY=    34.4129   ZY=     2.5290
   XZ=     2.6875   YZ=     2.5887   ZZ=    27.2344
   Eigenvalues:    26.2552    29.4372    41.7994
     13  H    Isotropic =    32.7645   Anisotropy =    11.6934
   XX=    35.2142   YX=    -1.2416   ZX=    -4.9291
   XY=    -1.1206   YY=    27.8821   ZY=     1.8631
   XZ=    -5.0604   YZ=     1.8102   ZZ=    35.1973
   Eigenvalues:    27.4469    30.2866    40.5601
     14  H    Isotropic =    32.4172   Anisotropy =    13.4982
   XX=    35.3434   YX=    -4.0521   ZX=     4.7921
   XY=    -3.9448   YY=    31.8122   ZY=    -4.5166
   XZ=     4.4128   YZ=    -4.2006   ZZ=    30.0959
   Eigenvalues:    26.3080    29.5275    41.4160
     15  H    Isotropic =    32.5833   Anisotropy =    10.5183
   XX=    31.3735   YX=    -0.1915   ZX=     0.2156
   XY=    -0.3373   YY=    27.4077   ZY=     2.8281
   XZ=     0.0586   YZ=     2.6963   ZZ=    38.9688
   Eigenvalues:    26.7636    31.3908    39.5955
     16  H    Isotropic =    32.0637   Anisotropy =     7.7336
   XX=    29.9622   YX=     0.1235   ZX=    -0.5270
   XY=    -0.3052   YY=    29.5060   ZY=     1.6136
   XZ=     0.7155   YZ=     2.2977   ZZ=    36.7230
   Eigenvalues:    28.9973    29.9744    37.2195
     17  H    Isotropic =    32.5504   Anisotropy =    11.1968
   XX=    34.0167   YX=    -1.5880   ZX=     2.1860
   XY=    -1.7654   YY=    31.1198   ZY=    -6.6350
   XZ=     2.4106   YZ=    -7.0174   ZZ=    32.5148
   Eigenvalues:    24.9453    32.6911    40.0150
     18  H    Isotropic =    32.1718   Anisotropy =    11.8538
   XX=    32.0397   YX=    -0.4535   ZX=    -2.1569
   XY=    -0.7347   YY=    36.0847   ZY=     6.3944
   XZ=    -2.0503   YZ=     6.5499   ZZ=    28.3909
   Eigenvalues:    24.3942    32.0468    40.0743
     19  H    Isotropic =    32.4579   Anisotropy =     7.8141
   XX=    32.1545   YX=    -0.6806   ZX=    -0.5760
   XY=    -0.8327   YY=    27.6604   ZY=     0.0786
   XZ=    -0.9677   YZ=    -0.1547   ZZ=    37.5587
   Eigenvalues:    27.5337    32.1726    37.6673
     20  H    Isotropic =    32.8580   Anisotropy =    11.0987
   XX=    31.3925   YX=    -0.3687   ZX=    -3.0241
   XY=    -0.2743   YY=    28.1321   ZY=    -1.2696
   XZ=    -3.0556   YZ=    -1.7814   ZZ=    39.0493
   Eigenvalues:    27.7378    30.5790    40.2571
     21  H    Isotropic =    32.4852   Anisotropy =    13.9376
   XX=    33.3501   YX=     4.9234   ZX=     0.5832
   XY=     4.7715   YY=    38.9883   ZY=    -0.4607
   XZ=     0.5592   YZ=    -0.2761   ZZ=    25.1171
   Eigenvalues:    25.0336    30.6450    41.7769
     22  H    Isotropic =    32.6613   Anisotropy =    11.3989
   XX=    34.8177   YX=    -2.8105   ZX=    -2.8968
   XY=    -2.5958   YY=    32.9674   ZY=     5.4603
   XZ=    -3.1904   YZ=     5.6228   ZZ=    30.1988
   Eigenvalues:    25.8004    31.9230    40.2606
     23  H    Isotropic =    32.1765   Anisotropy =    11.6387
   XX=    30.2509   YX=     0.2590   ZX=     3.2139
   XY=    -0.0684   YY=    34.3886   ZY=    -6.3175
   XZ=     2.7156   YZ=    -6.3248   ZZ=    31.8899
   Eigenvalues:    25.4784    31.1154    39.9356
     24  H    Isotropic =    34.8259   Anisotropy =    18.8666
   XX=    31.6111   YX=    -3.2883   ZX=    -3.8701
   XY=    -1.8449   YY=    45.3803   ZY=     4.5278
   XZ=    -2.9941   YZ=     5.4548   ZZ=    27.4863
   Eigenvalues:    25.0113    32.0629    47.4036
     25  H    Isotropic =    32.6246   Anisotropy =     9.8838
   XX=    30.9713   YX=    -0.2448   ZX=     2.0380
   XY=    -0.2542   YY=    28.3277   ZY=    -1.0644
   XZ=     2.0930   YZ=    -1.1089   ZZ=    38.5749
   Eigenvalues:    28.2133    30.4468    39.2139
     26  H    Isotropic =    32.5846   Anisotropy =    14.2255
   XX=    41.9206   YX=     1.1398   ZX=     0.7897
   XY=     1.2204   YY=    29.9390   ZY=     0.0047
   XZ=     0.6620   YZ=     0.0615   ZZ=    25.8941
   Eigenvalues:    25.8612    29.8242    42.0682
     27  H    Isotropic =    32.3079   Anisotropy =    10.2811
   XX=    30.8962   YX=     1.3324   ZX=    -1.8633
   XY=     1.3314   YY=    30.4499   ZY=    -4.9772
   XZ=    -1.8738   YZ=    -4.7876   ZZ=    35.5776
   Eigenvalues:    27.4889    30.2729    39.1620
     28  H    Isotropic =    31.7380   Anisotropy =    10.7052
   XX=    31.8736   YX=     0.9193   ZX=    -0.3154
   XY=     0.9764   YY=    36.5253   ZY=     5.5258
   XZ=     0.1589   YZ=     4.8461   ZZ=    26.8151
   Eigenvalues:    24.5386    31.8006    38.8747
     29  H    Isotropic =    32.5251   Anisotropy =    11.0611
   XX=    29.9254   YX=    -1.7696   ZX=    -2.1005
   XY=    -1.7968   YY=    29.7452   ZY=     3.6052
   XZ=    -2.1000   YZ=     3.4581   ZZ=    37.9047
   Eigenvalues:    27.8410    29.8352    39.8992
     30  H    Isotropic =    32.3623   Anisotropy =    10.6794
   XX=    32.2013   YX=     0.2442   ZX=    -1.9362
   XY=     0.2522   YY=    39.1095   ZY=    -2.3404
   XZ=    -1.5524   YZ=    -1.9386   ZZ=    25.7760
   Eigenvalues:    25.0434    32.5615    39.4819
     31  H    Isotropic =    32.4944   Anisotropy =    14.3166
   XX=    40.5155   YX=    -3.8617   ZX=     1.6520
   XY=    -4.0807   YY=    30.5652   ZY=     0.2063
   XZ=     1.4812   YZ=     0.0286   ZZ=    26.4027
   Eigenvalues:    26.1410    29.3035    42.0389
 End of Minotr Frequency-dependent properties file   721 does not exist.
 End of Minotr Frequency-dependent properties file   722 does not exist.

 **********************************************************************

            Population analysis using the SCF density.

 **********************************************************************

 Orbital symmetries:
       Occupied  (A) (A) (A) (A) (A) (A) (A) (A) (A) (A) (A) (A)
                 (A) (A) (A) (A) (A) (A) (A) (A) (A) (A) (A) (A)
                 (A) (A) (A) (A) (A) (A) (A) (A) (A) (A) (A) (A)
                 (A) (A) (A) (A) (A) (A) (A) (A)
       Virtual   (A) (A) (A) (A) (A) (A) (A) (A) (A) (A) (A) (A)
                 (A) (A) (A) (A) (A) (A) (A) (A) (A) (A) (A) (A)
                 (A) (A) (A) (A) (A) (A) (A)
 The electronic state is 1-A.
 Alpha  occ. eigenvalues --  -20.23652 -11.08557 -11.04733 -11.04321 -11.04159
 Alpha  occ. eigenvalues --  -11.03653 -11.03573 -11.03513 -11.03305 -11.02487
 Alpha  occ. eigenvalues --  -11.01583  -1.27856  -1.08108  -1.03306  -0.96640
 Alpha  occ. eigenvalues --   -0.94511  -0.87915  -0.87748  -0.79428  -0.78030
 Alpha  occ. eigenvalues --   -0.73783  -0.68860  -0.63233  -0.59934  -0.59528
 Alpha  occ. eigenvalues --   -0.56612  -0.56428  -0.54495  -0.52826  -0.51685
 Alpha  occ. eigenvalues --   -0.50104  -0.49653  -0.49239  -0.47725  -0.46530
 Alpha  occ. eigenvalues --   -0.45552  -0.44104  -0.42934  -0.41996  -0.40980
 Alpha  occ. eigenvalues --   -0.38983  -0.38342  -0.36277  -0.32763
 Alpha virt. eigenvalues --    0.53079   0.54199   0.56484   0.60337   0.60940
 Alpha virt. eigenvalues --    0.62064   0.62399   0.64928   0.65653   0.67333
 Alpha virt. eigenvalues --    0.68322   0.69960   0.70676   0.71945   0.72839
 Alpha virt. eigenvalues --    0.73424   0.73764   0.74203   0.75878   0.76548
 Alpha virt. eigenvalues --    0.76884   0.78128   0.78377   0.78773   0.79556
 Alpha virt. eigenvalues --    0.80787   0.81829   0.82168   0.85004   0.85606
 Alpha virt. eigenvalues --    0.87649
          Condensed to atoms (all electrons):
              1          2          3          4          5          6
     1  C    4.739139   0.366002   0.000653   0.000761   0.000019  -0.024022
     2  C    0.366002   4.742035  -0.018122  -0.022895  -0.006129   0.364935
     3  C    0.000653  -0.018122   4.741270  -0.021487   0.357488  -0.006956
     4  C    0.000761  -0.022895  -0.021487   4.762344   0.358725   0.361370
     5  C    0.000019  -0.006129   0.357488   0.358725   4.772742  -0.018432
     6  C   -0.024022   0.364935  -0.006956   0.361370  -0.018432   4.756760
     7  C   -0.024031   0.361403   0.356386  -0.003257  -0.020940  -0.024679
     8  O   -0.000001   0.000270   0.267516   0.000198  -0.015316   0.000006
     9  C    0.000000   0.000017  -0.017285  -0.021238   0.358564   0.000551
    10  C    0.000000   0.000000  -0.001010   0.000576  -0.019164  -0.000003
    11  C    0.000000   0.000000   0.000543  -0.003202  -0.020993   0.000021
    12  H    0.382387  -0.020273  -0.000015   0.000013   0.000000  -0.002214
    13  H    0.382180  -0.020763   0.000012   0.000006   0.000000  -0.002193
    14  H    0.382394  -0.020363   0.000010  -0.000018   0.000000   0.001308
    15  H   -0.024563   0.382927   0.000016  -0.002624  -0.000153  -0.024832
    16  H   -0.000015   0.000505   0.374806  -0.001646  -0.025890  -0.000044
    17  H   -0.000017   0.001322  -0.000069   0.382070  -0.021159  -0.023727
    18  H   -0.000008  -0.000160   0.001197   0.383261  -0.022088  -0.023307
    19  H    0.000000  -0.000050  -0.025383  -0.022472   0.378501   0.000196
    20  H   -0.001837  -0.023240  -0.000114  -0.022955   0.000099   0.381772
    21  H   -0.002606  -0.020804   0.000058  -0.021634   0.001071   0.383653
    22  H   -0.005032  -0.021367  -0.023523   0.000018   0.001152  -0.000272
    23  H   -0.000193  -0.021853  -0.020937   0.000043  -0.000131   0.001317
    24  H    0.000000   0.000008  -0.040901  -0.000036   0.002356  -0.000001
    25  H    0.000000   0.000000  -0.001485  -0.002284  -0.023604   0.000008
    26  H    0.000000   0.000000   0.000001  -0.000013   0.001044   0.000000
    27  H    0.000000   0.000000  -0.000008   0.000011  -0.002700   0.000000
    28  H    0.000000   0.000000  -0.000140  -0.000002  -0.000580   0.000000
    29  H    0.000000   0.000000   0.000008  -0.000053  -0.002262  -0.000002
    30  H    0.000000   0.000000   0.000003  -0.001377  -0.001272   0.000017
    31  H    0.000000   0.000000  -0.000011   0.000042   0.001086   0.000000
              7          8          9         10         11         12
     1  C   -0.024031  -0.000001   0.000000   0.000000   0.000000   0.382387
     2  C    0.361403   0.000270   0.000017   0.000000   0.000000  -0.020273
     3  C    0.356386   0.267516  -0.017285  -0.001010   0.000543  -0.000015
     4  C   -0.003257   0.000198  -0.021238   0.000576  -0.003202   0.000013
     5  C   -0.020940  -0.015316   0.358564  -0.019164  -0.020993   0.000000
     6  C   -0.024679   0.000006   0.000551  -0.000003   0.000021  -0.002214
     7  C    4.790863  -0.022586   0.000513  -0.000001  -0.000004   0.001294
     8  O   -0.022586   7.848503  -0.000264  -0.002090  -0.000001   0.000000
     9  C    0.000513  -0.000264   4.737512   0.364255   0.363807   0.000000
    10  C   -0.000001  -0.002090   0.364255   4.741181  -0.028003   0.000000
    11  C   -0.000004  -0.000001   0.363807  -0.028003   4.746357   0.000000
    12  H    0.001294   0.000000   0.000000   0.000000   0.000000   0.630000
    13  H   -0.002311   0.000000   0.000000   0.000000   0.000000  -0.021779
    14  H   -0.002144   0.000000   0.000000   0.000000   0.000000  -0.021568
    15  H   -0.024069   0.000000   0.000000   0.000000   0.000000  -0.002391
    16  H   -0.026210  -0.018965  -0.001738   0.000021   0.000000   0.000000
    17  H    0.000018  -0.000003  -0.004784   0.000031  -0.000646  -0.000001
    18  H    0.000019  -0.000004   0.000113  -0.000012  -0.000737   0.000001
    19  H   -0.002092  -0.000411  -0.024080  -0.001839  -0.002220   0.000000
    20  H   -0.002624   0.000000  -0.000003   0.000000   0.000000   0.000010
    21  H    0.001291   0.000000  -0.000010   0.000000   0.000000   0.000227
    22  H    0.380467   0.000175  -0.000012   0.000000   0.000000   0.000066
    23  H    0.380870  -0.002334  -0.000009   0.000000   0.000000  -0.000021
    24  H   -0.002844   0.257931   0.000004   0.000090   0.000000   0.000000
    25  H   -0.000001   0.000039   0.379853  -0.024738  -0.024203   0.000000
    26  H    0.000000   0.000041  -0.019774   0.381289  -0.004754   0.000000
    27  H   -0.000004  -0.000146  -0.020743   0.382431  -0.001000   0.000000
    28  H    0.000003  -0.000260  -0.019606   0.383052   0.001394   0.000000
    29  H    0.000000   0.000000  -0.020750  -0.001657   0.381652   0.000000
    30  H    0.000000   0.000000  -0.019353   0.001370   0.382492   0.000000
    31  H    0.000000   0.000000  -0.019321  -0.003688   0.382882   0.000000
             13         14         15         16         17         18
     1  C    0.382180   0.382394  -0.024563  -0.000015  -0.000017  -0.000008
     2  C   -0.020763  -0.020363   0.382927   0.000505   0.001322  -0.000160
     3  C    0.000012   0.000010   0.000016   0.374806  -0.000069   0.001197
     4  C    0.000006  -0.000018  -0.002624  -0.001646   0.382070   0.383261
     5  C    0.000000   0.000000  -0.000153  -0.025890  -0.021159  -0.022088
     6  C   -0.002193   0.001308  -0.024832  -0.000044  -0.023727  -0.023307
     7  C   -0.002311  -0.002144  -0.024069  -0.026210   0.000018   0.000019
     8  O    0.000000   0.000000   0.000000  -0.018965  -0.000003  -0.000004
     9  C    0.000000   0.000000   0.000000  -0.001738  -0.004784   0.000113
    10  C    0.000000   0.000000   0.000000   0.000021   0.000031  -0.000012
    11  C    0.000000   0.000000   0.000000   0.000000  -0.000646  -0.000737
    12  H   -0.021779  -0.021568  -0.002391   0.000000  -0.000001   0.000001
    13  H    0.631328  -0.021688   0.001907   0.000002   0.000000   0.000000
    14  H   -0.021688   0.630164  -0.002275   0.000000   0.000000   0.000000
    15  H    0.001907  -0.002275   0.650882  -0.000021   0.000015   0.000295
    16  H    0.000002   0.000000  -0.000021   0.667378   0.000219  -0.000004
    17  H    0.000000   0.000000   0.000015   0.000219   0.644784  -0.023636
    18  H    0.000000   0.000000   0.000295  -0.000004  -0.023636   0.644548
    19  H    0.000000   0.000000  -0.000409   0.001963   0.001760  -0.005687
    20  H    0.000385  -0.000001   0.002012  -0.000360  -0.005878   0.001991
    21  H   -0.000010   0.000026  -0.001862   0.000003   0.000199  -0.005860
    22  H    0.000347  -0.000084   0.001895  -0.005853   0.000002   0.000001
    23  H    0.000001   0.000221  -0.005398   0.001782   0.000001   0.000001
    24  H    0.000000   0.000000   0.000000  -0.003910   0.000001   0.000001
    25  H    0.000000   0.000000   0.000000   0.000411   0.000384   0.000027
    26  H    0.000000   0.000000   0.000000  -0.000003  -0.000002   0.000000
    27  H    0.000000   0.000000   0.000000   0.000008   0.000000   0.000001
    28  H    0.000000   0.000000   0.000000  -0.000010   0.000001   0.000000
    29  H    0.000000   0.000000   0.000000   0.000000   0.000038  -0.000016
    30  H    0.000000   0.000000   0.000000   0.000001  -0.000392  -0.001009
    31  H    0.000000   0.000000   0.000000   0.000000  -0.000011   0.000020
             19         20         21         22         23         24
     1  C    0.000000  -0.001837  -0.002606  -0.005032  -0.000193   0.000000
     2  C   -0.000050  -0.023240  -0.020804  -0.021367  -0.021853   0.000008
     3  C   -0.025383  -0.000114   0.000058  -0.023523  -0.020937  -0.040901
     4  C   -0.022472  -0.022955  -0.021634   0.000018   0.000043  -0.000036
     5  C    0.378501   0.000099   0.001071   0.001152  -0.000131   0.002356
     6  C    0.000196   0.381772   0.383653  -0.000272   0.001317  -0.000001
     7  C   -0.002092  -0.002624   0.001291   0.380467   0.380870  -0.002844
     8  O   -0.000411   0.000000   0.000000   0.000175  -0.002334   0.257931
     9  C   -0.024080  -0.000003  -0.000010  -0.000012  -0.000009   0.000004
    10  C   -0.001839   0.000000   0.000000   0.000000   0.000000   0.000090
    11  C   -0.002220   0.000000   0.000000   0.000000   0.000000   0.000000
    12  H    0.000000   0.000010   0.000227   0.000066  -0.000021   0.000000
    13  H    0.000000   0.000385  -0.000010   0.000347   0.000001   0.000000
    14  H    0.000000  -0.000001   0.000026  -0.000084   0.000221   0.000000
    15  H   -0.000409   0.002012  -0.001862   0.001895  -0.005398   0.000000
    16  H    0.001963  -0.000360   0.000003  -0.005853   0.001782  -0.003910
    17  H    0.001760  -0.005878   0.000199   0.000002   0.000001   0.000001
    18  H   -0.005687   0.001991  -0.005860   0.000001   0.000001   0.000001
    19  H    0.649699  -0.000024  -0.000019   0.000003   0.000183  -0.000006
    20  H   -0.000024   0.648665  -0.024033   0.000310   0.000013   0.000000
    21  H   -0.000019  -0.024033   0.638595  -0.000018  -0.000035   0.000000
    22  H    0.000003   0.000310  -0.000018   0.651974  -0.024910   0.000179
    23  H    0.000183   0.000013  -0.000035  -0.024910   0.635230  -0.000083
    24  H   -0.000006   0.000000   0.000000   0.000179  -0.000083   0.610625
    25  H    0.001792   0.000003  -0.000001   0.000000   0.000000  -0.000008
    26  H    0.000005   0.000000   0.000000   0.000000   0.000000  -0.000004
    27  H    0.000419   0.000000   0.000000   0.000000   0.000000   0.000014
    28  H    0.000002   0.000000   0.000000   0.000000   0.000000   0.000077
    29  H    0.000429   0.000000   0.000000   0.000000   0.000000   0.000000
    30  H    0.000018  -0.000001   0.000001   0.000000   0.000000   0.000000
    31  H    0.000006   0.000000   0.000000   0.000000   0.000000   0.000000
             25         26         27         28         29         30
     1  C    0.000000   0.000000   0.000000   0.000000   0.000000   0.000000
     2  C    0.000000   0.000000   0.000000   0.000000   0.000000   0.000000
     3  C   -0.001485   0.000001  -0.000008  -0.000140   0.000008   0.000003
     4  C   -0.002284  -0.000013   0.000011  -0.000002  -0.000053  -0.001377
     5  C   -0.023604   0.001044  -0.002700  -0.000580  -0.002262  -0.001272
     6  C    0.000008   0.000000   0.000000   0.000000  -0.000002   0.000017
     7  C   -0.000001   0.000000  -0.000004   0.000003   0.000000   0.000000
     8  O    0.000039   0.000041  -0.000146  -0.000260   0.000000   0.000000
     9  C    0.379853  -0.019774  -0.020743  -0.019606  -0.020750  -0.019353
    10  C   -0.024738   0.381289   0.382431   0.383052  -0.001657   0.001370
    11  C   -0.024203  -0.004754  -0.001000   0.001394   0.381652   0.382492
    12  H    0.000000   0.000000   0.000000   0.000000   0.000000   0.000000
    13  H    0.000000   0.000000   0.000000   0.000000   0.000000   0.000000
    14  H    0.000000   0.000000   0.000000   0.000000   0.000000   0.000000
    15  H    0.000000   0.000000   0.000000   0.000000   0.000000   0.000000
    16  H    0.000411  -0.000003   0.000008  -0.000010   0.000000   0.000001
    17  H    0.000384  -0.000002   0.000000   0.000001   0.000038  -0.000392
    18  H    0.000027   0.000000   0.000001   0.000000  -0.000016  -0.001009
    19  H    0.001792   0.000005   0.000419   0.000002   0.000429   0.000018
    20  H    0.000003   0.000000   0.000000   0.000000   0.000000  -0.000001
    21  H   -0.000001   0.000000   0.000000   0.000000   0.000000   0.000001
    22  H    0.000000   0.000000   0.000000   0.000000   0.000000   0.000000
    23  H    0.000000   0.000000   0.000000   0.000000   0.000000   0.000000
    24  H   -0.000008  -0.000004   0.000014   0.000077   0.000000   0.000000
    25  H    0.656324  -0.000981   0.001880  -0.003706   0.001885  -0.002621
    26  H   -0.000981   0.640510  -0.021927  -0.023259   0.000005   0.000082
    27  H    0.001880  -0.021927   0.625746  -0.020312   0.000238  -0.000011
    28  H   -0.003706  -0.023259  -0.020312   0.618220   0.000002  -0.000040
    29  H    0.001885   0.000005   0.000238   0.000002   0.631934  -0.021711
    30  H   -0.002621   0.000082  -0.000011  -0.000040  -0.021711   0.634030
    31  H   -0.001779  -0.000207   0.000028   0.000062  -0.021539  -0.022791
             31
     1  C    0.000000
     2  C    0.000000
     3  C   -0.000011
     4  C    0.000042
     5  C    0.001086
     6  C    0.000000
     7  C    0.000000
     8  O    0.000000
     9  C   -0.019321
    10  C   -0.003688
    11  C    0.382882
    12  H    0.000000
    13  H    0.000000
    14  H    0.000000
    15  H    0.000000
    16  H    0.000000
    17  H   -0.000011
    18  H    0.000020
    19  H    0.000006
    20  H    0.000000
    21  H    0.000000
    22  H    0.000000
    23  H    0.000000
    24  H    0.000000
    25  H   -0.001779
    26  H   -0.000207
    27  H    0.000028
    28  H    0.000062
    29  H   -0.021539
    30  H   -0.022791
    31  H    0.631666
 Mulliken atomic charges:
              1
     1  C   -0.171210
     2  C   -0.023407
     3  C    0.077481
     4  C   -0.102245
     5  C   -0.032033
     6  C   -0.101230
     7  C   -0.115329
     8  O   -0.312299
     9  C   -0.016220
    10  C   -0.172094
    11  C   -0.173384
    12  H    0.054263
    13  H    0.052576
    14  H    0.054018
    15  H    0.048649
    16  H    0.037570
    17  H    0.049478
    18  H    0.051051
    19  H    0.049715
    20  H    0.045810
    21  H    0.051767
    22  H    0.044482
    23  H    0.056243
    24  H    0.176505
    25  H    0.042805
    26  H    0.047945
    27  H    0.056073
    28  H    0.065103
    29  H    0.051799
    30  H    0.052563
    31  H    0.053554
 Sum of Mulliken atomic charges =   0.00000
 Mulliken charges with hydrogens summed into heavy atoms:
              1
     1  C   -0.010352
     2  C    0.025242
     3  C    0.115050
     4  C   -0.001716
     5  C    0.017682
     6  C   -0.003652
     7  C   -0.014605
     8  O   -0.135794
     9  C    0.026585
    10  C   -0.002972
    11  C   -0.015468
 Sum of Mulliken charges with hydrogens summed into heavy atoms =   0.00000
 Electronic spatial extent (au):  <R**2>=           2236.3269
 Charge=              0.0000 electrons
 Dipole moment (field-independent basis, Debye):
    X=             -1.1748    Y=             -0.1497    Z=              0.7621  Tot=              1.4083
 Quadrupole moment (field-independent basis, Debye-Ang):
   XX=            -69.3621   YY=            -66.6889   ZZ=            -66.5327
   XY=             -2.6574   XZ=              0.3333   YZ=              2.2738
 Traceless Quadrupole moment (field-independent basis, Debye-Ang):
   XX=             -1.8342   YY=              0.8390   ZZ=              0.9952
   XY=             -2.6574   XZ=              0.3333   YZ=              2.2738
 Octapole moment (field-independent basis, Debye-Ang**2):
  XXX=              5.9800  YYY=             21.7770  ZZZ=             -0.0555  XYY=             -7.8088
  XXY=              2.4253  XXZ=              0.9096  XZZ=              0.4385  YZZ=              5.5770
  YYZ=              5.7227  XYZ=             -0.2604
 Hexadecapole moment (field-independent basis, Debye-Ang**3):
 XXXX=          -2016.9477 YYYY=           -651.0236 ZZZZ=           -161.4054 XXXY=              3.3362
 XXXZ=              5.1479 YYYX=             -2.1620 YYYZ=             17.6511 ZZZX=             -2.5156
 ZZZY=              0.7283 XXYY=           -455.2270 XXZZ=           -359.1377 YYZZ=           -140.3741
 XXYZ=              0.3045 YYXZ=              4.9185 ZZXY=              0.4412
 N-N= 6.875808841569D+02 E-N=-2.447321704792D+03  KE= 4.555351543519D+02
 ******************************Gaussian NBO Version 3.1******************************
             N A T U R A L   A T O M I C   O R B I T A L   A N D
          N A T U R A L   B O N D   O R B I T A L   A N A L Y S I S
 ******************************Gaussian NBO Version 3.1******************************
       /RESON  / : Allow strongly delocalized NBO set
       /NLMO   / : Form Natural Localized Molecular Orbitals
       /NMR /    : Analyze NMR Sheilding Tensor 

 Analyzing the SCF density

 Job title: comment                                                         

 Storage needed:     19864 in NPA,     23691 in NBO,     45933 in NLMO (  33549317 available)


 NATURAL POPULATIONS:  Natural atomic orbital occupancies 
                                                          
   NAO  Atom  No  lang   Type(AO)    Occupancy      Energy
 ----------------------------------------------------------
     1    C    1  S      Cor( 1S)     1.99997     -10.96651
     2    C    1  S      Val( 2S)     1.07948      -0.18264
     3    C    1  px     Val( 2p)     0.98988       0.08752
     4    C    1  py     Val( 2p)     1.02903       0.08234
     5    C    1  pz     Val( 2p)     1.02756       0.08301

     6    C    2  S      Cor( 1S)     1.99997     -10.98903
     7    C    2  S      Val( 2S)     1.07630      -0.18938
     8    C    2  px     Val( 2p)     0.95631       0.10920
     9    C    2  py     Val( 2p)     0.96027       0.10787
    10    C    2  pz     Val( 2p)     0.99344       0.10105

    11    C    3  S      Cor( 1S)     1.99989     -11.03515
    12    C    3  S      Val( 2S)     1.08892      -0.21762
    13    C    3  px     Val( 2p)     0.92745       0.09776
    14    C    3  py     Val( 2p)     0.86619       0.11226
    15    C    3  pz     Val( 2p)     0.97212       0.09319

    16    C    4  S      Cor( 1S)     1.99995     -10.97438
    17    C    4  S      Val( 2S)     1.08828      -0.19197
    18    C    4  px     Val( 2p)     0.97139       0.10232
    19    C    4  py     Val( 2p)     0.98860       0.09271
    20    C    4  pz     Val( 2p)     1.01576       0.09439

    21    C    5  S      Cor( 1S)     1.99995     -10.98978
    22    C    5  S      Val( 2S)     1.10399      -0.21173
    23    C    5  px     Val( 2p)     0.95714       0.10673
    24    C    5  py     Val( 2p)     0.95057       0.10939
    25    C    5  pz     Val( 2p)     0.99720       0.09928

    26    C    6  S      Cor( 1S)     1.99997     -10.97400
    27    C    6  S      Val( 2S)     1.08179      -0.18660
    28    C    6  px     Val( 2p)     0.97888       0.09677
    29    C    6  py     Val( 2p)     1.00093       0.09480
    30    C    6  pz     Val( 2p)     1.00359       0.09404

    31    C    7  S      Cor( 1S)     1.99996     -10.97451
    32    C    7  S      Val( 2S)     1.09645      -0.20103
    33    C    7  px     Val( 2p)     0.98611       0.08832
    34    C    7  py     Val( 2p)     0.99161       0.09031
    35    C    7  pz     Val( 2p)     1.01684       0.08800

    36    O    8  S      Cor( 1S)     1.99999     -20.14022
    37    O    8  S      Val( 2S)     1.74808      -0.99730
    38    O    8  px     Val( 2p)     1.67801      -0.25723
    39    O    8  py     Val( 2p)     1.11444      -0.01226
    40    O    8  pz     Val( 2p)     1.79315      -0.30121

    41    C    9  S      Cor( 1S)     1.99996     -10.98646
    42    C    9  S      Val( 2S)     1.08756      -0.19264
    43    C    9  px     Val( 2p)     0.94376       0.12036
    44    C    9  py     Val( 2p)     0.95481       0.11546
    45    C    9  pz     Val( 2p)     0.98737       0.11098

    46    C   10  S      Cor( 1S)     1.99997     -10.94962
    47    C   10  S      Val( 2S)     1.08096      -0.16706
    48    C   10  px     Val( 2p)     1.00771       0.10410
    49    C   10  py     Val( 2p)     1.01006       0.09979
    50    C   10  pz     Val( 2p)     1.03091       0.09889

    51    C   11  S      Cor( 1S)     1.99997     -10.95894
    52    C   11  S      Val( 2S)     1.08249      -0.17832
    53    C   11  px     Val( 2p)     1.02127       0.08880
    54    C   11  py     Val( 2p)     1.00341       0.09326
    55    C   11  pz     Val( 2p)     1.02187       0.09084

    56    H   12  S      Val( 1S)     0.96306       0.07375

    57    H   13  S      Val( 1S)     0.96467       0.07208

    58    H   14  S      Val( 1S)     0.96328       0.07292

    59    H   15  S      Val( 1S)     0.97514       0.06601

    60    H   16  S      Val( 1S)     0.99821       0.04576

    61    H   17  S      Val( 1S)     0.97177       0.07126

    62    H   18  S      Val( 1S)     0.97020       0.07240

    63    H   19  S      Val( 1S)     0.97672       0.06941

    64    H   20  S      Val( 1S)     0.97442       0.06733

    65    H   21  S      Val( 1S)     0.96847       0.07079

    66    H   22  S      Val( 1S)     0.97574       0.06132

    67    H   23  S      Val( 1S)     0.96446       0.07079

    68    H   24  S      Val( 1S)     0.81083       0.07366

    69    H   25  S      Val( 1S)     0.98303       0.06894

    70    H   26  S      Val( 1S)     0.96888       0.08391

    71    H   27  S      Val( 1S)     0.96133       0.09209

    72    H   28  S      Val( 1S)     0.95357       0.10183

    73    H   29  S      Val( 1S)     0.96565       0.07809

    74    H   30  S      Val( 1S)     0.96530       0.08070

    75    H   31  S      Val( 1S)     0.96378       0.07965


 Summary of Natural Population Analysis:                  
                                                          
                                       Natural Population 
                Natural  -----------------------------------------------
    Atom  No    Charge         Core      Valence    Rydberg      Total
 -----------------------------------------------------------------------
      C    1   -0.12593      1.99997     4.12596    0.00000     6.12593
      C    2    0.01371      1.99997     3.98632    0.00000     5.98629
      C    3    0.14542      1.99989     3.85469    0.00000     5.85458
      C    4   -0.06398      1.99995     4.06403    0.00000     6.06398
      C    5   -0.00885      1.99995     4.00890    0.00000     6.00885
      C    6   -0.06515      1.99997     4.06519    0.00000     6.06515
      C    7   -0.09096      1.99996     4.09100    0.00000     6.09096
      O    8   -0.33367      1.99999     6.33368    0.00000     8.33367
      C    9    0.02655      1.99996     3.97350    0.00000     5.97345
      C   10   -0.12962      1.99997     4.12965    0.00000     6.12962
      C   11   -0.12900      1.99997     4.12903    0.00000     6.12900
      H   12    0.03694      0.00000     0.96306    0.00000     0.96306
      H   13    0.03533      0.00000     0.96467    0.00000     0.96467
      H   14    0.03672      0.00000     0.96328    0.00000     0.96328
      H   15    0.02486      0.00000     0.97514    0.00000     0.97514
      H   16    0.00179      0.00000     0.99821    0.00000     0.99821
      H   17    0.02823      0.00000     0.97177    0.00000     0.97177
      H   18    0.02980      0.00000     0.97020    0.00000     0.97020
      H   19    0.02328      0.00000     0.97672    0.00000     0.97672
      H   20    0.02558      0.00000     0.97442    0.00000     0.97442
      H   21    0.03153      0.00000     0.96847    0.00000     0.96847
      H   22    0.02426      0.00000     0.97574    0.00000     0.97574
      H   23    0.03554      0.00000     0.96446    0.00000     0.96446
      H   24    0.18917      0.00000     0.81083    0.00000     0.81083
      H   25    0.01697      0.00000     0.98303    0.00000     0.98303
      H   26    0.03112      0.00000     0.96888    0.00000     0.96888
      H   27    0.03867      0.00000     0.96133    0.00000     0.96133
      H   28    0.04643      0.00000     0.95357    0.00000     0.95357
      H   29    0.03435      0.00000     0.96565    0.00000     0.96565
      H   30    0.03470      0.00000     0.96530    0.00000     0.96530
      H   31    0.03622      0.00000     0.96378    0.00000     0.96378
 =======================================================================
   * Total *    0.00000     21.99955    66.00045    0.00000    88.00000

                                 Natural Population      
 --------------------------------------------------------
   Core                      21.99955 ( 99.9979% of  22)
   Valence                   66.00045 (100.0007% of  66)
   Natural Minimal Basis     88.00000 (100.0000% of  88)
   Natural Rydberg Basis      0.00000 (  0.0000% of  88)
 --------------------------------------------------------

    Atom  No          Natural Electron Configuration
 ----------------------------------------------------------------------------
      C    1      [core]2S( 1.08)2p( 3.05)
      C    2      [core]2S( 1.08)2p( 2.91)
      C    3      [core]2S( 1.09)2p( 2.77)
      C    4      [core]2S( 1.09)2p( 2.98)
      C    5      [core]2S( 1.10)2p( 2.90)
      C    6      [core]2S( 1.08)2p( 2.98)
      C    7      [core]2S( 1.10)2p( 2.99)
      O    8      [core]2S( 1.75)2p( 4.59)
      C    9      [core]2S( 1.09)2p( 2.89)
      C   10      [core]2S( 1.08)2p( 3.05)
      C   11      [core]2S( 1.08)2p( 3.05)
      H   12            1S( 0.96)
      H   13            1S( 0.96)
      H   14            1S( 0.96)
      H   15            1S( 0.98)
      H   16            1S( 1.00)
      H   17            1S( 0.97)
      H   18            1S( 0.97)
      H   19            1S( 0.98)
      H   20            1S( 0.97)
      H   21            1S( 0.97)
      H   22            1S( 0.98)
      H   23            1S( 0.96)
      H   24            1S( 0.81)
      H   25            1S( 0.98)
      H   26            1S( 0.97)
      H   27            1S( 0.96)
      H   28            1S( 0.95)
      H   29            1S( 0.97)
      H   30            1S( 0.97)
      H   31            1S( 0.96)


 NATURAL BOND ORBITAL ANALYSIS:

                       Occupancies       Lewis Structure    Low   High
           Occ.    -------------------  -----------------   occ   occ
  Cycle   Thresh.   Lewis   Non-Lewis     CR  BD  3C  LP    (L)   (NL)   Dev
 =============================================================================
   1(1)    1.90    87.64704   0.35296     11  31   0   2     0      0    0.02
 -----------------------------------------------------------------------------

 Structure accepted: No low occupancy Lewis orbitals

 --------------------------------------------------------
   Core                     21.99954 ( 99.998% of  22)
   Valence Lewis            65.64750 ( 99.466% of  66)
  ==================       ============================
   Total Lewis              87.64704 ( 99.599% of  88)
  -----------------------------------------------------
   Valence non-Lewis         0.35296 (  0.401% of  88)
   Rydberg non-Lewis         0.00000 (  0.000% of  88)
  ==================       ============================
   Total non-Lewis           0.35296 (  0.401% of  88)
 --------------------------------------------------------


       (Occupancy)   Bond orbital/ Coefficients/ Hybrids
 ---------------------------------------------------------------------------------
     1. (1.98916) BD ( 1) C   1 - C   2  
                ( 50.81%)   0.7128* C   1 s( 25.76%)p 2.88( 74.24%)
                                            0.0001  0.5075  0.8586 -0.0381 -0.0617
                ( 49.19%)   0.7014* C   2 s( 25.25%)p 2.96( 74.75%)
                                            0.0000  0.5025 -0.8588  0.0466  0.0884
     2. (1.99494) BD ( 1) C   1 - H  12  
                ( 51.86%)   0.7201* C   1 s( 24.71%)p 3.05( 75.29%)
                                            0.0000  0.4971 -0.3444 -0.7610 -0.2349
                ( 48.14%)   0.6938* H  12 s(100.00%)
                                            1.0000
     3. (1.99531) BD ( 1) C   1 - H  13  
                ( 51.81%)   0.7198* C   1 s( 24.81%)p 3.03( 75.19%)
                                            0.0000  0.4981 -0.2278  0.1759  0.8180
                ( 48.19%)   0.6942* H  13 s(100.00%)
                                            1.0000
     4. (1.99507) BD ( 1) C   1 - H  14  
                ( 51.85%)   0.7201* C   1 s( 24.73%)p 3.04( 75.27%)
                                            0.0000  0.4973 -0.3038  0.6233 -0.5215
                ( 48.15%)   0.6939* H  14 s(100.00%)
                                            1.0000
     5. (1.98594) BD ( 1) C   2 - C   6  
                ( 49.64%)   0.7046* C   2 s( 25.16%)p 2.98( 74.84%)
                                            0.0000  0.5016  0.3137 -0.6151  0.5212
                ( 50.36%)   0.7096* C   6 s( 25.41%)p 2.94( 74.59%)
                                            0.0001  0.5040 -0.3265  0.6128 -0.5137
     6. (1.98445) BD ( 1) C   2 - C   7  
                ( 49.36%)   0.7025* C   2 s( 25.01%)p 3.00( 74.99%)
                                            0.0000  0.5001  0.3551  0.7627  0.2050
                ( 50.64%)   0.7116* C   7 s( 25.80%)p 2.88( 74.20%)
                                            0.0001  0.5080 -0.3402 -0.7727 -0.1706
     7. (1.98518) BD ( 1) C   2 - H  15  
                ( 51.18%)   0.7154* C   2 s( 24.58%)p 3.07( 75.42%)
                                            0.0000  0.4958  0.1948 -0.1944 -0.8237
                ( 48.82%)   0.6987* H  15 s(100.00%)
                                            1.0000
     8. (1.98302) BD ( 1) C   3 - C   5  
                ( 50.71%)   0.7121* C   3 s( 26.76%)p 2.74( 73.24%)
                                            0.0000  0.5173  0.4291 -0.6600 -0.3357
                ( 49.29%)   0.7021* C   5 s( 25.18%)p 2.97( 74.82%)
                                            0.0001  0.5018 -0.3793  0.6991  0.3400
     9. (1.98670) BD ( 1) C   3 - C   7  
                ( 49.31%)   0.7022* C   3 s( 25.60%)p 2.91( 74.40%)
                                            0.0000  0.5060 -0.8148  0.0107 -0.2828
                ( 50.69%)   0.7120* C   7 s( 25.40%)p 2.94( 74.60%)
                                            0.0000  0.5040  0.8220 -0.0860  0.2509
    10. (1.98832) BD ( 1) C   3 - O   8  
                ( 41.02%)   0.6405* C   3 s( 22.37%)p 3.47( 77.63%)
                                            0.0000  0.4729  0.3897  0.7502 -0.2482
                ( 58.98%)   0.7680* O   8 s( 16.59%)p 5.03( 83.41%)
                                            0.0000  0.4073 -0.4352 -0.7485  0.2906
    11. (1.98990) BD ( 1) C   3 - H  16  
                ( 50.40%)   0.7100* C   3 s( 25.27%)p 2.96( 74.73%)
                                            0.0000  0.5027  0.0120 -0.0374  0.8636
                ( 49.60%)   0.7042* H  16 s(100.00%)
                                            1.0000
    12. (1.98205) BD ( 1) C   4 - C   5  
                ( 50.45%)   0.7103* C   4 s( 25.56%)p 2.91( 74.44%)
                                            0.0001  0.5055  0.3937  0.7374 -0.2139
                ( 49.55%)   0.7039* C   5 s( 24.98%)p 3.00( 75.02%)
                                            0.0000  0.4998 -0.4227 -0.7118  0.2546
    13. (1.98909) BD ( 1) C   4 - C   6  
                ( 49.98%)   0.7069* C   4 s( 25.46%)p 2.93( 74.54%)
                                            0.0000  0.5046 -0.8445  0.1382  0.1144
                ( 50.02%)   0.7073* C   6 s( 25.10%)p 2.98( 74.90%)
                                            0.0000  0.5010  0.8504 -0.0770 -0.1408
    14. (1.99060) BD ( 1) C   4 - H  17  
                ( 51.41%)   0.7170* C   4 s( 24.58%)p 3.07( 75.42%)
                                            0.0000  0.4958  0.3448 -0.3112  0.7338
                ( 48.59%)   0.6971* H  17 s(100.00%)
                                            1.0000
    15. (1.99135) BD ( 1) C   4 - H  18  
                ( 51.47%)   0.7174* C   4 s( 24.40%)p 3.10( 75.60%)
                                            0.0000  0.4939  0.1137 -0.5834 -0.6346
                ( 48.53%)   0.6967* H  18 s(100.00%)
                                            1.0000
    16. (1.97851) BD ( 1) C   5 - C   9  
                ( 50.36%)   0.7096* C   5 s( 25.45%)p 2.93( 74.55%)
                                            0.0001  0.5045  0.8227 -0.0417  0.2589
                ( 49.64%)   0.7046* C   9 s( 25.36%)p 2.94( 74.64%)
                                            0.0001  0.5036 -0.8254  0.0836 -0.2412
    17. (1.98546) BD ( 1) C   5 - H  19  
                ( 51.11%)   0.7149* C   5 s( 24.39%)p 3.10( 75.61%)
                                            0.0000  0.4939 -0.0272  0.0527 -0.8675
                ( 48.89%)   0.6992* H  19 s(100.00%)
                                            1.0000
    18. (1.99144) BD ( 1) C   6 - H  20  
                ( 51.31%)   0.7163* C   6 s( 24.43%)p 3.09( 75.57%)
                                            0.0000  0.4943 -0.1339  0.2184  0.8307
                ( 48.69%)   0.6978* H  20 s(100.00%)
                                            1.0000
    19. (1.99008) BD ( 1) C   6 - H  21  
                ( 51.56%)   0.7180* C   6 s( 25.06%)p 2.99( 74.94%)
                                            0.0000  0.5006 -0.3902 -0.7556 -0.1621
                ( 48.44%)   0.6960* H  21 s(100.00%)
                                            1.0000
    20. (1.99086) BD ( 1) C   7 - H  22  
                ( 51.22%)   0.7157* C   7 s( 24.18%)p 3.14( 75.82%)
                                            0.0000  0.4917 -0.4554  0.3835  0.6354
                ( 48.78%)   0.6984* H  22 s(100.00%)
                                            1.0000
    21. (1.98962) BD ( 1) C   7 - H  23  
                ( 51.74%)   0.7193* C   7 s( 24.61%)p 3.06( 75.39%)
                                            0.0000  0.4961 -0.0353  0.4985 -0.7100
                ( 48.26%)   0.6947* H  23 s(100.00%)
                                            1.0000
    22. (1.98870) BD ( 1) O   8 - H  24  
                ( 59.44%)   0.7710* O   8 s( 16.75%)p 4.97( 83.25%)
                                            0.0000 -0.4093  0.4758 -0.6598 -0.4132
                ( 40.56%)   0.6369* H  24 s(100.00%)
                                           -1.0000
    23. (1.98945) BD ( 1) C   9 - C  10  
                ( 49.44%)   0.7031* C   9 s( 25.39%)p 2.94( 74.61%)
                                            0.0000  0.5039  0.4511  0.6923 -0.2515
                ( 50.56%)   0.7111* C  10 s( 25.79%)p 2.88( 74.21%)
                                            0.0001  0.5079 -0.4880 -0.6735  0.2245
    24. (1.98881) BD ( 1) C   9 - C  11  
                ( 48.91%)   0.6993* C   9 s( 24.76%)p 3.04( 75.24%)
                                            0.0000  0.4976  0.3370 -0.7130 -0.3612
                ( 51.09%)   0.7148* C  11 s( 25.79%)p 2.88( 74.21%)
                                            0.0001  0.5078 -0.3713  0.6992  0.3398
    25. (1.98547) BD ( 1) C   9 - H  25  
                ( 50.79%)   0.7126* C   9 s( 24.48%)p 3.08( 75.52%)
                                            0.0000  0.4948  0.0417 -0.0732  0.8649
                ( 49.21%)   0.7015* H  25 s(100.00%)
                                            1.0000
    26. (1.99412) BD ( 1) C  10 - H  26  
                ( 51.56%)   0.7181* C  10 s( 24.41%)p 3.10( 75.59%)
                                            0.0000  0.4941  0.8396 -0.2029  0.0987
                ( 48.44%)   0.6960* H  26 s(100.00%)
                                            1.0000
    27. (1.99551) BD ( 1) C  10 - H  27  
                ( 51.97%)   0.7209* C  10 s( 25.03%)p 3.00( 74.97%)
                                            0.0000  0.5003 -0.1469  0.2077 -0.8277
                ( 48.03%)   0.6930* H  27 s(100.00%)
                                            1.0000
    28. (1.99546) BD ( 1) C  10 - H  28  
                ( 52.38%)   0.7237* C  10 s( 24.77%)p 3.04( 75.23%)
                                            0.0000  0.4977 -0.1880  0.6798  0.5048
                ( 47.62%)   0.6901* H  28 s(100.00%)
                                            1.0000
    29. (1.99562) BD ( 1) C  11 - H  29  
                ( 51.76%)   0.7195* C  11 s( 24.82%)p 3.03( 75.18%)
                                            0.0000  0.4982 -0.0743  0.0184 -0.8637
                ( 48.24%)   0.6945* H  29 s(100.00%)
                                            1.0000
    30. (1.99541) BD ( 1) C  11 - H  30  
                ( 51.79%)   0.7196* C  11 s( 24.67%)p 3.05( 75.33%)
                                            0.0000  0.4967 -0.3873 -0.7145  0.3046
                ( 48.21%)   0.6944* H  30 s(100.00%)
                                            1.0000
    31. (1.99444) BD ( 1) C  11 - H  31  
                ( 51.81%)   0.7198* C  11 s( 24.72%)p 3.05( 75.28%)
                                            0.0000  0.4972  0.8406 -0.0187  0.2141
                ( 48.19%)   0.6942* H  31 s(100.00%)
                                            1.0000
    32. (1.99997) CR ( 1) C   1           s(100.00%)
                                            1.0000  0.0000 -0.0001  0.0000  0.0000
    33. (1.99997) CR ( 1) C   2           s(100.00%)
                                            1.0000  0.0000  0.0000  0.0000  0.0000
    34. (1.99989) CR ( 1) C   3           s(100.00%)
                                            1.0000  0.0000  0.0000  0.0000  0.0000
    35. (1.99995) CR ( 1) C   4           s(100.00%)
                                            1.0000 -0.0001  0.0000 -0.0001  0.0000
    36. (1.99995) CR ( 1) C   5           s(100.00%)
                                            1.0000 -0.0001  0.0000  0.0000  0.0000
    37. (1.99997) CR ( 1) C   6           s(100.00%)
                                            1.0000  0.0000  0.0000 -0.0001  0.0001
    38. (1.99996) CR ( 1) C   7           s(100.00%)
                                            1.0000  0.0000  0.0000  0.0001  0.0000
    39. (1.99999) CR ( 1) O   8           s(100.00%)
                                            1.0000  0.0000  0.0000  0.0000  0.0000
    40. (1.99996) CR ( 1) C   9           s(100.00%)
                                            1.0000  0.0000  0.0001  0.0000  0.0000
    41. (1.99997) CR ( 1) C  10           s(100.00%)
                                            1.0000  0.0000  0.0001  0.0001  0.0000
    42. (1.99997) CR ( 1) C  11           s(100.00%)
                                            1.0000  0.0000  0.0001 -0.0001  0.0000
    43. (1.99207) LP ( 1) O   8           s( 66.44%)p 0.51( 33.56%)
                                            0.0000  0.8151  0.4196  0.0455 -0.3968
    44. (1.97537) LP ( 2) O   8           s(  0.22%)p99.99( 99.78%)
                                            0.0000  0.0469  0.6388 -0.0484  0.7664
    45. (0.01001) BD*( 1) C   1 - C   2  
                ( 49.19%)   0.7014* C   1 s( 25.76%)p 2.88( 74.24%)
                                           -0.0001 -0.5075 -0.8586  0.0381  0.0617
                ( 50.81%)  -0.7128* C   2 s( 25.25%)p 2.96( 74.75%)
                                            0.0000 -0.5025  0.8588 -0.0466 -0.0884
    46. (0.00515) BD*( 1) C   1 - H  12  
                ( 48.14%)   0.6938* C   1 s( 24.71%)p 3.05( 75.29%)
                                            0.0000 -0.4971  0.3444  0.7610  0.2349
                ( 51.86%)  -0.7201* H  12 s(100.00%)
                                           -1.0000
    47. (0.00593) BD*( 1) C   1 - H  13  
                ( 48.19%)   0.6942* C   1 s( 24.81%)p 3.03( 75.19%)
                                            0.0000 -0.4981  0.2278 -0.1759 -0.8180
                ( 51.81%)  -0.7198* H  13 s(100.00%)
                                           -1.0000
    48. (0.00505) BD*( 1) C   1 - H  14  
                ( 48.15%)   0.6939* C   1 s( 24.73%)p 3.04( 75.27%)
                                            0.0000 -0.4973  0.3038 -0.6233  0.5215
                ( 51.85%)  -0.7201* H  14 s(100.00%)
                                           -1.0000
    49. (0.01526) BD*( 1) C   2 - C   6  
                ( 50.36%)   0.7096* C   2 s( 25.16%)p 2.98( 74.84%)
                                            0.0000  0.5016  0.3137 -0.6151  0.5212
                ( 49.64%)  -0.7046* C   6 s( 25.41%)p 2.94( 74.59%)
                                            0.0001  0.5040 -0.3265  0.6128 -0.5137
    50. (0.01594) BD*( 1) C   2 - C   7  
                ( 50.64%)   0.7116* C   2 s( 25.01%)p 3.00( 74.99%)
                                            0.0000  0.5001  0.3551  0.7627  0.2050
                ( 49.36%)  -0.7025* C   7 s( 25.80%)p 2.88( 74.20%)
                                            0.0001  0.5080 -0.3402 -0.7727 -0.1706
    51. (0.01155) BD*( 1) C   2 - H  15  
                ( 48.82%)   0.6987* C   2 s( 24.58%)p 3.07( 75.42%)
                                            0.0000 -0.4958 -0.1948  0.1944  0.8237
                ( 51.18%)  -0.7154* H  15 s(100.00%)
                                           -1.0000
    52. (0.02756) BD*( 1) C   3 - C   5  
                ( 49.29%)   0.7021* C   3 s( 26.76%)p 2.74( 73.24%)
                                            0.0000 -0.5173 -0.4291  0.6600  0.3357
                ( 50.71%)  -0.7121* C   5 s( 25.18%)p 2.97( 74.82%)
                                           -0.0001 -0.5018  0.3793 -0.6991 -0.3400
    53. (0.02751) BD*( 1) C   3 - C   7  
                ( 50.69%)   0.7120* C   3 s( 25.60%)p 2.91( 74.40%)
                                            0.0000  0.5060 -0.8148  0.0107 -0.2828
                ( 49.31%)  -0.7022* C   7 s( 25.40%)p 2.94( 74.60%)
                                            0.0000  0.5040  0.8220 -0.0860  0.2509
    54. (0.02088) BD*( 1) C   3 - O   8  
                ( 58.98%)   0.7680* C   3 s( 22.37%)p 3.47( 77.63%)
                                            0.0000  0.4729  0.3897  0.7502 -0.2482
                ( 41.02%)  -0.6405* O   8 s( 16.59%)p 5.03( 83.41%)
                                            0.0000  0.4073 -0.4352 -0.7485  0.2906
    55. (0.02243) BD*( 1) C   3 - H  16  
                ( 49.60%)   0.7042* C   3 s( 25.27%)p 2.96( 74.73%)
                                            0.0000 -0.5027 -0.0120  0.0374 -0.8636
                ( 50.40%)  -0.7100* H  16 s(100.00%)
                                           -1.0000
    56. (0.01579) BD*( 1) C   4 - C   5  
                ( 49.55%)   0.7039* C   4 s( 25.56%)p 2.91( 74.44%)
                                           -0.0001 -0.5055 -0.3937 -0.7374  0.2139
                ( 50.45%)  -0.7103* C   5 s( 24.98%)p 3.00( 75.02%)
                                            0.0000 -0.4998  0.4227  0.7118 -0.2546
    57. (0.01193) BD*( 1) C   4 - C   6  
                ( 50.02%)   0.7073* C   4 s( 25.46%)p 2.93( 74.54%)
                                            0.0000  0.5046 -0.8445  0.1382  0.1144
                ( 49.98%)  -0.7069* C   6 s( 25.10%)p 2.98( 74.90%)
                                            0.0000  0.5010  0.8504 -0.0770 -0.1408
    58. (0.00887) BD*( 1) C   4 - H  17  
                ( 48.59%)   0.6971* C   4 s( 24.58%)p 3.07( 75.42%)
                                            0.0000 -0.4958 -0.3448  0.3112 -0.7338
                ( 51.41%)  -0.7170* H  17 s(100.00%)
                                           -1.0000
    59. (0.00728) BD*( 1) C   4 - H  18  
                ( 48.53%)   0.6967* C   4 s( 24.40%)p 3.10( 75.60%)
                                            0.0000 -0.4939 -0.1137  0.5834  0.6346
                ( 51.47%)  -0.7174* H  18 s(100.00%)
                                           -1.0000
    60. (0.02139) BD*( 1) C   5 - C   9  
                ( 49.64%)   0.7046* C   5 s( 25.45%)p 2.93( 74.55%)
                                           -0.0001 -0.5045 -0.8227  0.0417 -0.2589
                ( 50.36%)  -0.7096* C   9 s( 25.36%)p 2.94( 74.64%)
                                           -0.0001 -0.5036  0.8254 -0.0836  0.2412
    61. (0.01175) BD*( 1) C   5 - H  19  
                ( 48.89%)   0.6992* C   5 s( 24.39%)p 3.10( 75.61%)
                                            0.0000 -0.4939  0.0272 -0.0527  0.8675
                ( 51.11%)  -0.7149* H  19 s(100.00%)
                                           -1.0000
    62. (0.00946) BD*( 1) C   6 - H  20  
                ( 48.69%)   0.6978* C   6 s( 24.43%)p 3.09( 75.57%)
                                            0.0000 -0.4943  0.1339 -0.2184 -0.8307
                ( 51.31%)  -0.7163* H  20 s(100.00%)
                                           -1.0000
    63. (0.00850) BD*( 1) C   6 - H  21  
                ( 48.44%)   0.6960* C   6 s( 25.06%)p 2.99( 74.94%)
                                            0.0000 -0.5006  0.3902  0.7556  0.1621
                ( 51.56%)  -0.7180* H  21 s(100.00%)
                                           -1.0000
    64. (0.00886) BD*( 1) C   7 - H  22  
                ( 48.78%)   0.6984* C   7 s( 24.18%)p 3.14( 75.82%)
                                            0.0000 -0.4917  0.4554 -0.3835 -0.6354
                ( 51.22%)  -0.7157* H  22 s(100.00%)
                                           -1.0000
    65. (0.00836) BD*( 1) C   7 - H  23  
                ( 48.26%)   0.6947* C   7 s( 24.61%)p 3.06( 75.39%)
                                            0.0000 -0.4961  0.0353 -0.4985  0.7100
                ( 51.74%)  -0.7193* H  23 s(100.00%)
                                           -1.0000
    66. (0.00705) BD*( 1) O   8 - H  24  
                ( 40.56%)   0.6369* O   8 s( 16.75%)p 4.97( 83.25%)
                                            0.0000  0.4093 -0.4758  0.6598  0.4132
                ( 59.44%)  -0.7710* H  24 s(100.00%)
                                            1.0000
    67. (0.01014) BD*( 1) C   9 - C  10  
                ( 50.56%)   0.7111* C   9 s( 25.39%)p 2.94( 74.61%)
                                            0.0000  0.5039  0.4511  0.6923 -0.2515
                ( 49.44%)  -0.7031* C  10 s( 25.79%)p 2.88( 74.21%)
                                            0.0001  0.5079 -0.4880 -0.6735  0.2245
    68. (0.01012) BD*( 1) C   9 - C  11  
                ( 51.09%)   0.7148* C   9 s( 24.76%)p 3.04( 75.24%)
                                            0.0000  0.4976  0.3370 -0.7130 -0.3612
                ( 48.91%)  -0.6993* C  11 s( 25.79%)p 2.88( 74.21%)
                                            0.0001  0.5078 -0.3713  0.6992  0.3398
    69. (0.01159) BD*( 1) C   9 - H  25  
                ( 49.21%)   0.7015* C   9 s( 24.48%)p 3.08( 75.52%)
                                            0.0000 -0.4948 -0.0417  0.0732 -0.8649
                ( 50.79%)  -0.7126* H  25 s(100.00%)
                                           -1.0000
    70. (0.00573) BD*( 1) C  10 - H  26  
                ( 48.44%)   0.6960* C  10 s( 24.41%)p 3.10( 75.59%)
                                            0.0000 -0.4941 -0.8396  0.2029 -0.0987
                ( 51.56%)  -0.7181* H  26 s(100.00%)
                                           -1.0000
    71. (0.00554) BD*( 1) C  10 - H  27  
                ( 48.03%)   0.6930* C  10 s( 25.03%)p 3.00( 74.97%)
                                            0.0000 -0.5003  0.1469 -0.2077  0.8277
                ( 51.97%)  -0.7209* H  27 s(100.00%)
                                           -1.0000
    72. (0.00618) BD*( 1) C  10 - H  28  
                ( 47.62%)   0.6901* C  10 s( 24.77%)p 3.04( 75.23%)
                                            0.0000 -0.4977  0.1880 -0.6798 -0.5048
[...]
 Sum      351.6932      -22.4749     374.1682       -26.0482     377.7414

 Contributions to Isotropic shielding for atom    9 (   210.9479 ppm):
                         Standard Origin              Atomic Origin
 NLMO      Total    Paramagnetic  Diamagnetic   Paramagnetic  Diamagnetic
   10       0.0860       -0.3327       0.4188        -1.2067       1.2928
   14      -0.2636       -0.7016       0.4379        -1.2580       0.9944
   16       5.3942      -10.0380      15.4322        -2.2619       7.6561
   17       0.3685       -0.1241       0.4926        -0.6623       1.0308
   23      -2.2873       -6.1470       3.8597       -10.0430       7.7557
   24      -1.7269       -4.6443       2.9174        -9.1905       7.4636
   25       4.9802       -4.0150       8.9952        -5.8505      10.8307
   27       0.8809       -0.5350       1.4160        -0.2032       1.0842
   28       0.6215       -0.6047       1.2262        -0.4097       1.0312
   29       0.9418       -0.4802       1.4220        -0.1259       1.0677
   30       0.7303       -0.5106       1.2409        -0.2353       0.9655
   40     199.9181       -0.0015     199.9197         0.0019     199.9162
 Sum      209.6438      -28.1347     237.7785       -31.4452     241.0890

 Contributions to Isotropic shielding for atom   10 (   220.7547 ppm):
                         Standard Origin              Atomic Origin
 NLMO      Total    Paramagnetic  Diamagnetic   Paramagnetic  Diamagnetic
   10       0.1285       -0.2916       0.4201        -1.0455       1.1739
   23       4.6209      -10.4134      15.0343        -3.1455       7.7664
   24      -0.5041        0.2465      -0.7506        -1.2635       0.7594
   25       0.2581       -0.1374       0.3956        -0.7746       1.0327
   26       4.1954        2.6099       1.5854        -6.7951      10.9905
   27       6.1359       -4.9161      11.0520        -5.0680      11.2039
   28       6.1615       -4.3467      10.5082        -5.1431      11.3046
   31      -0.2582       -0.8887       0.6305        -1.2128       0.9546
   41     200.0739       -0.0037     200.0776         0.0023     200.0716
 Sum      220.8117      -18.1413     238.9530       -24.4458     245.2576

 Contributions to Isotropic shielding for atom   11 (   220.5462 ppm):
                         Standard Origin              Atomic Origin
 NLMO      Total    Paramagnetic  Diamagnetic   Paramagnetic  Diamagnetic
   12      -0.0383        0.2407      -0.2790        -1.0144       0.9761
   23      -0.5372        0.1934      -0.7306        -1.3147       0.7776
   24       4.7617      -11.1912      15.9530        -3.2907       8.0525
   25       0.2875       -0.0519       0.3394        -0.7229       1.0105
   26      -0.3657       -1.0330       0.6673        -1.3581       0.9924
   29       6.1134       -4.0912      10.2046        -5.0055      11.1188
   30       5.7219       -4.5597      10.2815        -5.3727      11.0946
   31       4.1197        2.2480       1.8717        -6.9941      11.1138
   42     200.0734       -0.0038     200.0773         0.0022     200.0712
 Sum      220.1365      -18.2487     238.3851       -25.0710     245.2075

 Contributions to Isotropic shielding for atom   12 (    32.4973 ppm):
                         Standard Origin              Atomic Origin
 NLMO      Total    Paramagnetic  Diamagnetic   Paramagnetic  Diamagnetic
    1       1.4547       -0.6607       2.1154         0.4584       0.9963
    2      26.3522        0.1589      26.1933         0.4484      25.9038
    3       1.8813        1.7578       0.1235         0.0408       1.8405
    4       1.9411        2.1907      -0.2496         0.0998       1.8413
    5      -0.1563        0.7831      -0.9394        -1.0040       0.8477
 Sum       31.4731        4.2298      27.2433         0.0435      31.4295

 Contributions to Isotropic shielding for atom   13 (    32.7646 ppm):
                         Standard Origin              Atomic Origin
 NLMO      Total    Paramagnetic  Diamagnetic   Paramagnetic  Diamagnetic
    1       1.6455       -1.2045       2.8500         0.7699       0.8756
    2       1.9226        1.9407      -0.0181         0.0917       1.8309
    3      26.3700        0.2624      26.1076         0.4464      25.9237
    4       1.9723        1.7794       0.1929         0.1485       1.8239
 Sum       31.9104        2.7780      29.1324         1.4564      30.4540

 Contributions to Isotropic shielding for atom   14 (    32.4171 ppm):
                         Standard Origin              Atomic Origin
 NLMO      Total    Paramagnetic  Diamagnetic   Paramagnetic  Diamagnetic
    1       1.4743       -0.8552       2.3295         0.4792       0.9951
    2       1.8700        2.1844      -0.3144         0.0343       1.8358
    3       1.9094        1.6226       0.2868         0.0760       1.8334
    4      26.3284        0.1735      26.1549         0.4193      25.9091
    6      -0.1291        0.7065      -0.8356        -1.0224       0.8933
 Sum       31.4530        3.8319      27.6212        -0.0136      31.4666

 Contributions to Isotropic shielding for atom   15 (    32.5833 ppm):
                         Standard Origin              Atomic Origin
 NLMO      Total    Paramagnetic  Diamagnetic   Paramagnetic  Diamagnetic
    1       0.8078        2.1003      -1.2925        -0.1598       0.9676
    2       0.2645       -1.0199       1.2844        -0.7090       0.9735
    4       0.2600       -1.0180       1.2780        -0.7002       0.9602
    5       1.4850        0.2401       1.2449         0.6450       0.8399
    6       1.5912        0.0359       1.5553         0.7251       0.8661
    7      26.3781        0.0673      26.3108         0.3491      26.0290
   21      -0.0285       -0.3327       0.3043        -1.1428       1.1143
 Sum       30.7582        0.0729      30.6852        -0.9925      31.7507

 Contributions to Isotropic shielding for atom   16 (    32.0637 ppm):
                         Standard Origin              Atomic Origin
 NLMO      Total    Paramagnetic  Diamagnetic   Paramagnetic  Diamagnetic
    8       0.9789       -0.1019       1.0807        -0.1908       1.1697
   10       0.6379        1.0135      -0.3757        -0.9174       1.5552
   11      26.7607        0.3459      26.4148         0.6846      26.0761
   20      -0.0194       -0.8154       0.7961        -1.1513       1.1319
   22       0.3057       -0.8224       1.1281        -0.6657       0.9714
 Sum       28.6638       -0.3803      29.0441        -2.2407      30.9044

 Contributions to Isotropic shielding for atom   17 (    32.5504 ppm):
                         Standard Origin              Atomic Origin
 NLMO      Total    Paramagnetic  Diamagnetic   Paramagnetic  Diamagnetic
   12       1.3909        0.3262       1.0647         0.4522       0.9387
   13       0.9997        1.1285      -0.1288        -0.1161       1.1158
   14      26.4431        0.0474      26.3957         0.4635      25.9796
   15       2.1040        1.5877       0.5162         0.3701       1.7339
   16      -0.1485       -0.0719      -0.0766        -1.2848       1.1363
   18       0.0058       -0.6619       0.6677        -1.1329       1.1387
   30      -0.2875       -1.3929       1.1055        -0.8438       0.5563
 Sum       30.5074        0.9630      29.5444        -2.0918      32.5993

 Contributions to Isotropic shielding for atom   18 (    32.1718 ppm):
                         Standard Origin              Atomic Origin
 NLMO      Total    Paramagnetic  Diamagnetic   Paramagnetic  Diamagnetic
   12       1.2765        0.2690       1.0075         0.1716       1.1049
   13       0.9892        1.1782      -0.1889        -0.0503       1.0395
   14       2.0564        1.5177       0.5387         0.3110       1.7453
   15      26.3902       -0.0171      26.4073         0.4193      25.9709
   17      -0.0247       -0.1484       0.1237        -1.0767       1.0520
   19      -0.0242       -0.6906       0.6663        -1.1214       1.0972
   30      -0.2624       -1.3523       1.0899        -0.9305       0.6681
 Sum       30.4010        0.7565      29.6446        -2.2769      32.6780

 Contributions to Isotropic shielding for atom   19 (    32.4579 ppm):
                         Standard Origin              Atomic Origin
 NLMO      Total    Paramagnetic  Diamagnetic   Paramagnetic  Diamagnetic
    8       1.2003        0.5480       0.6523         0.2508       0.9495
   10       0.1786       -0.5015       0.6801        -1.2242       1.4028
   12       1.2371        0.6587       0.5784         0.2740       0.9631
   15       0.0004       -0.6911       0.6915        -1.0825       1.0828
   16       1.0439        1.2080      -0.1641        -0.0725       1.1164
   17      26.3434        0.0836      26.2598         0.3869      25.9564
   27      -0.0979       -1.2527       1.1548        -0.9747       0.8768
   29      -0.0718       -1.3244       1.2526        -0.9651       0.8934
 Sum       29.8339       -1.2715      31.1055        -3.4073      33.2412

 Contributions to Isotropic shielding for atom   20 (    32.8580 ppm):
                         Standard Origin              Atomic Origin
 NLMO      Total    Paramagnetic  Diamagnetic   Paramagnetic  Diamagnetic
    3      -0.0359       -1.3007       1.2648        -0.9154       0.8795
    5       1.2101        0.5695       0.6406         0.3861       0.8240
   13       1.3926       -0.0065       1.3991         0.4747       0.9179
   14      -0.0623       -0.1982       0.1359        -1.2016       1.1393
   18      26.4923        0.1238      26.3686         0.4201      26.0723
   19       1.9592        1.9652      -0.0060         0.1827       1.7765
 Sum       30.9560        1.1530      29.8030        -0.6535      31.6095

 Contributions to Isotropic shielding for atom   21 (    32.4852 ppm):
                         Standard Origin              Atomic Origin
 NLMO      Total    Paramagnetic  Diamagnetic   Paramagnetic  Diamagnetic
    1      -0.1013        0.1109      -0.2121        -1.0178       0.9166
    2      -0.0709       -1.4278       1.3569        -0.9674       0.8965
    5       0.9955        1.1778      -0.1824         0.1547       0.8407
   13       1.2622        0.7021       0.5601         0.2830       0.9792
   15      -0.0147        0.0649      -0.0796        -1.1665       1.1518
   18       2.0468        1.7141       0.3327         0.2935       1.7533
   19      26.4194       -0.0394      26.4588         0.4896      25.9298
 Sum       30.5371        2.3026      28.2344        -1.9309      32.4680

 Contributions to Isotropic shielding for atom   22 (    32.6613 ppm):
                         Standard Origin              Atomic Origin
 NLMO      Total    Paramagnetic  Diamagnetic   Paramagnetic  Diamagnetic
    1      -0.1449       -0.3041       0.1592        -1.1894       1.0445
    3      -0.0057       -1.3518       1.3461        -0.9453       0.9396
    6       0.9852        1.1796      -0.1944         0.0995       0.8856
    9       1.2452        0.5118       0.7334         0.2385       1.0067
   10      -0.1395        0.3475      -0.4870        -1.0242       0.8847
   11      -0.1011       -0.0921      -0.0090        -1.1601       1.0590
   20      26.5523       -0.0576      26.6099         0.4542      26.0981
   21       1.9787        1.7309       0.2478         0.1139       1.8648
 Sum       30.3700        1.9641      28.4059        -3.4130      33.7830

 Contributions to Isotropic shielding for atom   23 (    32.1765 ppm):
                         Standard Origin              Atomic Origin
 NLMO      Total    Paramagnetic  Diamagnetic   Paramagnetic  Diamagnetic
    4      -0.0699       -1.3378       1.2679        -0.9251       0.8552
    6       0.9537        0.8051       0.1486        -0.0938       1.0476
    7       0.0469       -0.4607       0.5076        -0.9908       1.0377
    9       1.4074        0.2683       1.1391         0.5359       0.8715
   10      -0.1827       -0.0444      -0.1383        -1.6839       1.5012
   20       1.9341        1.7883       0.1458         0.1330       1.8011
   21      26.2611        0.0961      26.1650         0.4713      25.7898
 Sum       30.3506        1.1149      29.2357        -2.5535      32.9042

 Contributions to Isotropic shielding for atom   24 (    34.8259 ppm):
                         Standard Origin              Atomic Origin
 NLMO      Total    Paramagnetic  Diamagnetic   Paramagnetic  Diamagnetic
    9      -0.1887        0.3540      -0.5427        -1.3065       1.1179
   10       1.3649        2.2041      -0.8392         0.6759       0.6890
   11       0.1420        0.2473      -0.1054        -0.8720       1.0140
   22      23.0788       -0.5338      23.6126        -0.1156      23.1944
   43       4.2188        0.8467       3.3721         2.2947       1.9241
   44       5.4283        2.2795       3.1488         2.2788       3.1495
 Sum       34.0440        5.3978      28.6461         2.9551      31.0888

 Contributions to Isotropic shielding for atom   25 (    32.6246 ppm):
                         Standard Origin              Atomic Origin
 NLMO      Total    Paramagnetic  Diamagnetic   Paramagnetic  Diamagnetic
   10       0.0637       -0.1354       0.1991        -0.9568       1.0205
   16       1.7087       -0.3200       2.0287         0.7526       0.9560
   23       0.9273        1.5817      -0.6543        -0.1214       1.0487
   24       0.9184        1.7874      -0.8690        -0.0572       0.9756
   25      26.6004        0.0678      26.5326         0.4305      26.1698
   28       0.1517       -0.8475       0.9993        -0.8927       1.0444
 Sum       30.3702        2.1339      28.2363        -0.8449      31.2151

 Contributions to Isotropic shielding for atom   26 (    32.5846 ppm):
                         Standard Origin              Atomic Origin
 NLMO      Total    Paramagnetic  Diamagnetic   Paramagnetic  Diamagnetic
   23       1.2229        0.5082       0.7148         0.2919       0.9310
   24      -0.2678        0.7282      -0.9960        -1.4218       1.1540
   26      26.5363       -0.0453      26.5816         0.4763      26.0600
   27       1.9650        1.7419       0.2231         0.0925       1.8725
   28       2.0039        1.9258       0.0781         0.0858       1.9181
   31      -0.1390       -1.1054       0.9664        -1.0230       0.8839
 Sum       31.3213        3.7533      27.5681        -1.4982      32.8196

 Contributions to Isotropic shielding for atom   27 (    32.3079 ppm):
                         Standard Origin              Atomic Origin
 NLMO      Total    Paramagnetic  Diamagnetic   Paramagnetic  Diamagnetic
   23       1.5405       -0.8822       2.4227         0.6132       0.9272
   26       1.8542        2.1344      -0.2802         0.0590       1.7952
   27      26.2426        0.3179      25.9246         0.4147      25.8279
   28       2.1147        0.6969       1.4178         0.3101       1.8046
   43      -0.6735       -0.0164      -0.6571         0.3910      -1.0645
 Sum       31.0784        2.2508      28.8277         1.7880      29.2904

 Contributions to Isotropic shielding for atom   28 (    31.7380 ppm):
                         Standard Origin              Atomic Origin
 NLMO      Total    Paramagnetic  Diamagnetic   Paramagnetic  Diamagnetic
    8      -0.1079        0.1643      -0.2722        -1.0789       0.9710
   23       1.4862       -0.8516       2.3378         0.4818       1.0045
   25       0.0721        0.1425      -0.0703        -0.9318       1.0040
   26       1.7856        2.0763      -0.2907        -0.1286       1.9142
   27       2.0656        0.5812       1.4844         0.2392       1.8264
   28      26.0698        0.2507      25.8191         0.4080      25.6618
   43      -0.5171       -0.0998      -0.4173         0.6793      -1.1964
 Sum       30.8544        2.2635      28.5909        -0.3311      31.1854

 Contributions to Isotropic shielding for atom   29 (    32.5251 ppm):
                         Standard Origin              Atomic Origin
 NLMO      Total    Paramagnetic  Diamagnetic   Paramagnetic  Diamagnetic
   24       1.5844       -0.8956       2.4800         0.6149       0.9695
   29      26.3487        0.2898      26.0589         0.4085      25.9402
   30       2.0285        0.7566       1.2719         0.2343       1.7941
   31       1.8581        2.2041      -0.3460         0.0499       1.8082
 Sum       31.8197        2.3549      29.4648         1.3077      30.5120

 Contributions to Isotropic shielding for atom   30 (    32.3623 ppm):
                         Standard Origin              Atomic Origin
 NLMO      Total    Paramagnetic  Diamagnetic   Paramagnetic  Diamagnetic
   12      -0.0353        0.2374      -0.2728        -1.1158       1.0805
   15      -0.1389       -0.0303      -0.1086        -1.0171       0.8782
   24       1.5377       -1.0430       2.5807         0.5385       0.9993
   29       2.0352        0.7127       1.3225         0.1965       1.8387
   30      26.3823        0.2303      26.1520         0.4109      25.9714
   31       1.7926        2.0415      -0.2490        -0.1050       1.8976
 Sum       31.5735        2.1487      29.4248        -1.0920      32.6655

 Contributions to Isotropic shielding for atom   31 (    32.4944 ppm):
                         Standard Origin              Atomic Origin
 NLMO      Total    Paramagnetic  Diamagnetic   Paramagnetic  Diamagnetic
   23      -0.2290        0.7822      -1.0111        -1.3012       1.0722
   24       1.2615        0.3652       0.8963         0.2617       0.9997
   26      -0.1550       -1.1337       0.9786        -0.9864       0.8313
   29       1.9497        1.8351       0.1146         0.1033       1.8464
   30       1.9445        1.8356       0.1089         0.0640       1.8805
   31      26.3947       -0.0116      26.4063         0.4807      25.9139
 Sum       31.1663        3.6728      27.4935        -1.3778      32.5441
 
 1\1\GINC-COMPUTE-11-0\SP\RHF\STO-3G\C10H20O1\YTSAI.IQUIR\03-Aug-2021\0
 \\# rhf/STO-3G nmr pop=nbo\\comment\\0,1\C,0,-1.738011252,-0.328958585
 ,-3.2685124\C,0,-1.247059248,-0.238266216,-1.825415588\C,0,0.850130147
 ,-0.782872021,-0.419545216\C,0,-0.508760634,1.306383465,0.025465348\C,
 0,0.113198226,0.035825461,0.663812318\C,0,-0.858778031,1.1875016,-1.45
 8164183\C,0,-0.067785099,-1.187000704,-1.587291758\O,0,1.394574436,-1.
 987166691,0.108761504\C,0,0.977663965,0.43265215,1.908877373\C,0,1.604
 880895,-0.755807666,2.645739834\C,0,0.153781757,1.236283758,2.93011466
 6\H,0,-2.616253202,0.30745039,-3.419910553\H,0,-0.963964576,-0.0088797
 2,-3.974291299\H,0,-2.021478555,-1.356940258,-3.517760682\H,0,-2.07630
 1475,-0.547554136,-1.174756108\H,0,1.687577626,-0.185334706,-0.8012797
 61\H,0,0.164182514,2.165653091,0.138802801\H,0,-1.423507021,1.55642413
 6,0.578381684\H,0,-0.707127408,-0.59364434,1.039321603\H,0,0.004243841
 ,1.501438133,-2.060027426\H,0,-1.670014804,1.88687389,-1.693468974\H,0
 ,0.555275376,-1.260288039,-2.488981462\H,0,-0.460737402,-2.201154332,-
 1.433126504\H,0,1.886333388,-2.426713939,-0.605903892\H,0,1.799111523,
 1.076720101,1.567919421\H,0,2.025775875,-0.445569265,3.60892758\H,0,0.
 865633844,-1.539515018,2.840863708\H,0,2.436256852,-1.18319559,2.07876
 0073\H,0,-0.719775031,0.667140839,3.265804698\H,0,-0.19489655,2.186326
 594,2.514932176\H,0,0.755830026,1.482187619,3.811951018\\Version=EM64L
 -G09RevC.01\State=1-A\HF=-459.6088732\RMSD=5.023e-09\Dipole=0.0150753,
 0.1766956,-0.524933\Quadrupole=1.0166067,-0.6209785,-0.3956281,-0.0013
 564,-1.9114454,1.9440742\PG=C01 [X(C10H20O1)]\\@


 IT IS A QUALITY OF REVOLUTIONS NOT TO GO BY OLD LINES OR OLD LAWS,
 BUT TO BREAK UP BOTH, AND MAKE NEW ONES.
                                              -- A. LINCOLN (1848)
 Job cpu time:  0 days  0 hours  0 minutes 47.4 seconds.
 File lengths (MBytes):  RWF=      5 Int=      0 D2E=      0 Chk=      1 Scr=      1
 Normal termination of Gaussian 09 at Tue Aug  3 16:37:56 2021.
