 Entering Gaussian System, Link 0=g09
 Input=/home/ytsai.iquir/menthol/03_menthol_M0103_MMFF_NMR_rhf_STO-3G_nbo.gjc
 Output=/home/ytsai.iquir/menthol/03_menthol_M0103_MMFF_NMR_rhf_STO-3G_nbo.log
 Initial command:
 /share/apps/Gaussian09/EM64T.SSE4.2-enabled/g09/l1.exe /tmp/Gau-31362.inp -scrdir=/tmp/
 Entering Link 1 = /share/apps/Gaussian09/EM64T.SSE4.2-enabled/g09/l1.exe PID=     31363.
  
 Copyright (c) 1988,1990,1992,1993,1995,1998,2003,2009,2011,
            Gaussian, Inc.  All Rights Reserved.
  
 This is part of the Gaussian(R) 09 program.  It is based on
 the Gaussian(R) 03 system (copyright 2003, Gaussian, Inc.),
 the Gaussian(R) 98 system (copyright 1998, Gaussian, Inc.),
 the Gaussian(R) 94 system (copyright 1995, Gaussian, Inc.),
 the Gaussian 92(TM) system (copyright 1992, Gaussian, Inc.),
 the Gaussian 90(TM) system (copyright 1990, Gaussian, Inc.),
 the Gaussian 88(TM) system (copyright 1988, Gaussian, Inc.),
 the Gaussian 86(TM) system (copyright 1986, Carnegie Mellon
 University), and the Gaussian 82(TM) system (copyright 1983,
 Carnegie Mellon University). Gaussian is a federally registered
 trademark of Gaussian, Inc.
  
 This software contains proprietary and confidential information,
 including trade secrets, belonging to Gaussian, Inc.
  
 This software is provided under written license and may be
 used, copied, transmitted, or stored only in accord with that
 written license.
  
 The following legend is applicable only to US Government
 contracts under FAR:
  
                    RESTRICTED RIGHTS LEGEND
  
 Use, reproduction and disclosure by the US Government is
 subject to restrictions as set forth in subparagraphs (a)
 and (c) of the Commercial Computer Software - Restricted
 Rights clause in FAR 52.227-19.
  
 Gaussian, Inc.
 340 Quinnipiac St., Bldg. 40, Wallingford CT 06492
  
  
 ---------------------------------------------------------------
 Warning -- This program may not be used in any manner that
 competes with the business of Gaussian, Inc. or will provide
 assistance to any competitor of Gaussian, Inc.  The licensee
 of this program is prohibited from giving any competitor of
 Gaussian, Inc. access to this program.  By using this program,
 the user acknowledges that Gaussian, Inc. is engaged in the
 business of creating and licensing software in the field of
 computational chemistry and represents and warrants to the
 licensee that it is not a competitor of Gaussian, Inc. and that
 it will not use this program in any manner prohibited above.
 ---------------------------------------------------------------
  

 Cite this work as:
 Gaussian 09, Revision C.01,
 M. J. Frisch, G. W. Trucks, H. B. Schlegel, G. E. Scuseria, 
 M. A. Robb, J. R. Cheeseman, G. Scalmani, V. Barone, B. Mennucci, 
 G. A. Petersson, H. Nakatsuji, M. Caricato, X. Li, H. P. Hratchian, 
 A. F. Izmaylov, J. Bloino, G. Zheng, J. L. Sonnenberg, M. Hada, 
 M. Ehara, K. Toyota, R. Fukuda, J. Hasegawa, M. Ishida, T. Nakajima, 
 Y. Honda, O. Kitao, H. Nakai, T. Vreven, J. A. Montgomery, Jr., 
 J. E. Peralta, F. Ogliaro, M. Bearpark, J. J. Heyd, E. Brothers, 
 K. N. Kudin, V. N. Staroverov, T. Keith, R. Kobayashi, J. Normand, 
 K. Raghavachari, A. Rendell, J. C. Burant, S. S. Iyengar, J. Tomasi, 
 M. Cossi, N. Rega, J. M. Millam, M. Klene, J. E. Knox, J. B. Cross, 
 V. Bakken, C. Adamo, J. Jaramillo, R. Gomperts, R. E. Stratmann, 
 O. Yazyev, A. J. Austin, R. Cammi, C. Pomelli, J. W. Ochterski, 
 R. L. Martin, K. Morokuma, V. G. Zakrzewski, G. A. Voth, 
 P. Salvador, J. J. Dannenberg, S. Dapprich, A. D. Daniels, 
 O. Farkas, J. B. Foresman, J. V. Ortiz, J. Cioslowski, 
 and D. J. Fox, Gaussian, Inc., Wallingford CT, 2010.
 
 ******************************************
 Gaussian 09:  EM64L-G09RevC.01 23-Sep-2011
                 3-Aug-2021 
 ******************************************
 %nprocshared=4
 Will use up to    4 processors via shared memory.
 ------------------------
 # rhf/STO-3G nmr pop=nbo
 ------------------------
 1/38=1/1;
 2/12=2,17=6,18=5,40=1/2;
 3/6=3,11=1,16=1,25=1,30=1,116=1/1,2,8,3;
 4//1;
 5/5=2,38=5/2;
 8/6=1,10=90,11=11/1;
 10/13=100,45=16/2;
 6/7=2,8=2,9=2,10=2,28=1,64=1/1,7;
 99/9=1/99;
 -------
 comment
 -------
 Charge =  0 Multiplicity = 1
 Symbolic Z-Matrix:
 6                    -2.1419    0.52096  -2.51605 
 6                    -2.11596   0.23575  -1.01393 
 6                    -0.04466  -1.11021  -0.40766 
 6                    -0.78817   0.84752   1.05033 
 6                     0.27559  -0.26117   0.85195 
 6                    -1.35422   1.34696  -0.27499 
 6                    -1.54163  -1.1566   -0.71468 
 8                     0.41354  -2.44507  -0.19561 
 6                     1.73198   0.31363   0.82427 
 6                     2.79186  -0.7446    0.48713 
 6                     2.12328   0.95589   2.16478 
 1                    -2.57272   1.50781  -2.71588 
 1                    -1.1345    0.4963   -2.94495 
 1                    -2.75115  -0.22179  -3.04184 
 1                    -3.15768   0.24045  -0.66628 
 1                     0.48618  -0.71114  -1.28043 
 1                    -0.40149   1.6971    1.61728 
 1                    -1.61198   0.4412    1.65243 
 1                     0.22174  -0.91968   1.7312 
 1                    -0.53422   1.73585  -0.89191 
 1                    -2.03237   2.18989  -0.09509 
 1                    -1.7441   -1.85283  -1.53817 
 1                    -2.06326  -1.58764   0.1512 
 1                     0.24238  -2.94712  -1.01056 
 1                     1.78527   1.09112   0.05117 
 1                     2.74106  -1.59083   1.18046 
 1                     2.67595  -1.12249  -0.53278 
 1                     3.80024  -0.32023   0.54946 
 1                     1.5214    1.8389    2.39217 
 1                     3.16756   1.28765   2.1469 
 1                     2.01196   0.24441   2.99008 
 
                          Input orientation:                          
 ---------------------------------------------------------------------
 Center     Atomic      Atomic             Coordinates (Angstroms)
 Number     Number       Type             X           Y           Z
 ---------------------------------------------------------------------
      1          6           0       -2.141899    0.520963   -2.516048
      2          6           0       -2.115958    0.235750   -1.013926
      3          6           0       -0.044664   -1.110208   -0.407661
      4          6           0       -0.788166    0.847521    1.050329
      5          6           0        0.275595   -0.261172    0.851946
      6          6           0       -1.354221    1.346961   -0.274988
      7          6           0       -1.541630   -1.156600   -0.714684
      8          8           0        0.413538   -2.445068   -0.195605
      9          6           0        1.731984    0.313628    0.824275
     10          6           0        2.791860   -0.744603    0.487127
     11          6           0        2.123279    0.955886    2.164785
     12          1           0       -2.572717    1.507812   -2.715878
     13          1           0       -1.134497    0.496297   -2.944951
     14          1           0       -2.751147   -0.221789   -3.041841
     15          1           0       -3.157680    0.240455   -0.666280
     16          1           0        0.486183   -0.711137   -1.280434
     17          1           0       -0.401492    1.697102    1.617277
     18          1           0       -1.611983    0.441199    1.652431
     19          1           0        0.221741   -0.919680    1.731199
     20          1           0       -0.534222    1.735852   -0.891908
     21          1           0       -2.032369    2.189893   -0.095091
     22          1           0       -1.744103   -1.852825   -1.538172
     23          1           0       -2.063261   -1.587644    0.151199
     24          1           0        0.242378   -2.947123   -1.010559
     25          1           0        1.785274    1.091120    0.051174
     26          1           0        2.741063   -1.590828    1.180459
     27          1           0        2.675953   -1.122489   -0.532781
     28          1           0        3.800236   -0.320230    0.549462
     29          1           0        1.521403    1.838896    2.392167
     30          1           0        3.167559    1.287650    2.146900
     31          1           0        2.011963    0.244412    2.990078
 ---------------------------------------------------------------------
                    Distance matrix (angstroms):
                    1          2          3          4          5
     1  C    0.000000
     2  C    1.529179   0.000000
     3  C    3.391815   2.543505   0.000000
     4  C    3.828614   2.529515   2.551711   0.000000
     5  C    4.218933   3.073749   1.552429   1.549240   0.000000
     6  C    2.514966   1.536574   2.787511   1.525230   2.551935
     7  C    2.533664   1.535591   1.528830   2.774795   2.560942
     8  O    4.551050   3.775551   1.427154   3.719891   2.426065
     9  C    5.119347   4.265174   2.588716   2.585981   1.565960
    10  C    5.912926   5.225029   2.996695   3.958363   2.588124
    11  C    6.347527   5.347329   3.947936   3.119337   2.572686
    12  H    1.095174   2.173341   4.309634   4.219589   4.896075
    13  H    1.095183   2.181744   3.194751   4.025614   4.120503
    14  H    1.095136   2.173763   3.879851   4.662894   4.931966
    15  H    2.128882   1.098210   3.403240   2.988290   3.787349
    16  H    3.154620   2.781863   1.096718   3.079909   2.189488
    17  H    4.636453   3.463838   3.479754   1.092123   2.208850
    18  H    4.202784   2.721335   3.017835   1.098317   2.167269
    19  H    5.069651   3.786234   2.163792   2.146275   1.099827
    20  H    2.588128   2.183365   2.928176   2.150792   2.772171
    21  H    2.942509   2.160999   3.865143   2.159164   3.497326
    22  H    2.597952   2.185236   2.172010   3.860832   3.510726
    23  H    3.400973   2.164500   2.148256   2.892116   2.778637
    24  H    4.469776   3.961369   1.954517   4.439437   3.268693
    25  H    4.726351   4.133486   2.899146   2.771325   2.179234
    26  H    6.478205   5.634037   3.242437   4.291612   2.820362
    27  H    5.463147   5.003871   2.723521   4.288041   2.901905
    28  H    6.738985   6.144481   4.040224   4.761086   3.538090
    29  H    6.264767   5.234687   4.357616   2.849115   2.886972
    30  H    7.107829   6.246028   4.753301   4.128430   3.526926
    31  H    6.902787   5.750813   4.196348   3.459347   2.800392
                    6          7          8          9         10
     6  C    0.000000
     7  C    2.548779   0.000000
     8  O    4.184585   2.398390   0.000000
     9  C    3.435232   3.904678   3.223175   0.000000
    10  C    4.705895   4.515886   3.002353   1.535205   0.000000
    11  C    4.265963   5.117177   4.478967   1.537067   2.480564
    12  H    2.732864   3.488125   5.558305   5.699931   6.641634
    13  H    2.810802   2.805694   4.313577   4.738897   5.360529
    14  H    3.473881   2.784325   4.802006   5.944072   6.591804
    15  H    2.151727   2.136756   4.493013   5.112331   6.139846
    16  H    2.938329   2.151868   2.046618   2.651785   2.905433
    17  H    2.147314   3.857664   4.594387   2.663564   4.175722
    18  H    2.145179   2.856772   3.981019   3.447352   4.707217
    19  H    3.412639   3.024558   2.464989   2.150441   2.860748
    20  H    1.097372   3.067989   4.343176   3.178631   4.372324
    21  H    1.096714   3.438566   5.241700   4.305341   5.676568
    22  H    3.462119   1.097204   2.609339   4.728409   5.089691
    23  H    3.048980   1.098932   2.643858   4.297878   4.939207
    24  H    4.639972   2.544837   0.972370   4.027162   3.687006
    25  H    3.166744   4.087429   3.800946   1.097734   2.138492
    26  H    5.245978   4.703359   2.835605   2.184504   1.095164
    27  H    4.733597   4.221642   2.642239   2.189773   1.093822
    28  H    5.479751   5.552757   4.066914   2.180588   1.095810
    29  H    3.952838   5.292230   5.126040   2.197516   3.452203
    30  H    5.129869   6.028223   5.196647   2.181497   2.650669
    31  H    4.817413   5.321289   4.465069   2.184922   2.801991
                   11         12         13         14         15
    11  C    0.000000
    12  H    6.795430   0.000000
    13  H    6.077312   1.773165   0.000000
    14  H    7.228824   1.769070   1.771608   0.000000
    15  H    6.034509   2.479765   3.057952   2.454023   0.000000
    16  H    4.162762   4.042413   2.618228   3.717838   3.815816
    17  H    2.687682   4.850390   4.774217   5.559712   3.864327
    18  H    3.805206   4.598130   4.622440   4.875801   2.793904
    19  H    2.705844   5.786036   5.070577   5.666306   4.302825
    20  H    4.124807   2.744873   2.472207   3.656409   3.028144
    21  H    4.888683   2.761474   3.434551   3.875073   2.322260
    22  H    6.046271   3.656156   2.805178   2.436276   2.672119
    23  H    5.296338   4.249885   3.845980   3.540374   2.282097
    24  H    5.371598   5.538891   4.182678   4.529321   4.673283
    25  H    2.144735   5.179024   4.225593   5.645316   5.066672
    26  H    2.799340   7.281433   6.032832   7.061619   6.446644
    27  H    3.449921   6.263619   4.791509   6.046491   5.992221
    28  H    2.655170   7.390447   6.101575   7.471798   7.085548
    29  H    1.092550   6.554659   6.110745   7.213151   5.814029
    30  H    1.095859   7.526343   6.712739   8.014519   7.001374
    31  H    1.095306   7.427880   6.722218   7.699909   6.331996
                   16         17         18         19         20
    16  H    0.000000
    17  H    3.870958   0.000000
    18  H    3.785747   1.744654   0.000000
    19  H    3.030405   2.692387   2.284894   0.000000
    20  H    2.679540   2.512992   3.051452   3.808415   0.000000
    21  H    4.020462   2.415534   2.507686   4.252739   1.756564
    22  H    2.518741   4.935732   3.931914   3.927351   3.841884
    23  H    3.052459   3.962375   2.563894   2.857239   3.804163
    24  H    2.265371   5.374841   4.691577   3.410013   4.748414
    25  H    2.590164   2.757143   3.811532   3.051301   2.585565
    26  H    3.451715   4.569130   4.827101   2.664721   5.107739
    27  H    2.350168   4.695052   5.060303   3.345130   4.313271
    28  H    3.805821   4.781671   5.575700   3.815949   5.009246
    29  H    4.589374   2.078000   3.509826   3.120215   3.875740
    30  H    4.788689   3.631291   4.879037   3.704450   4.810241
    31  H    4.634474   3.133633   3.867946   2.478866   4.876194
                   21         22         23         24         25
    21  H    0.000000
    22  H    4.302226   0.000000
    23  H    3.785683   1.739585   0.000000
    24  H    5.692230   2.328512   2.917848   0.000000
    25  H    3.975310   4.863058   4.690097   4.451428   0.000000
    26  H    6.221457   5.251315   4.913341   3.589362   3.062950
    27  H    5.773364   4.591415   4.810858   3.078936   2.456497
    28  H    6.382432   6.119375   6.012117   4.689625   2.510034
    29  H    4.351889   6.303959   5.441777   6.010027   2.471648
    30  H    5.734092   6.896865   6.293776   6.038172   2.518214
    31  H    5.446079   6.245917   5.293686   5.415018   3.066832
                   26         27         28         29         30
    26  H    0.000000
    27  H    1.777293   0.000000
    28  H    1.770430   1.754674   0.000000
    29  H    3.836511   4.319504   3.640120   0.000000
    30  H    3.066193   3.637462   2.353161   1.753242   0.000000
    31  H    2.678510   3.836644   3.077881   1.772153   1.770507
                   31
    31  H    0.000000
 Stoichiometry    C10H20O
 Framework group  C1[X(C10H20O)]
 Deg. of freedom    87
 Full point group                 C1      NOp   1
 Largest Abelian subgroup         C1      NOp   1
 Largest concise Abelian subgroup C1      NOp   1
                         Standard orientation:                         
 ---------------------------------------------------------------------
 Center     Atomic      Atomic             Coordinates (Angstroms)
 Number     Number       Type             X           Y           Z
 ---------------------------------------------------------------------
      1          6           0       -3.178657   -0.139670    1.079860
      2          6           0       -2.317414   -0.395546   -0.157548
      3          6           0       -0.213265    1.031199   -0.077692
      4          6           0       -0.090888   -1.416162   -0.789508
      5          6           0        0.721721   -0.123266   -0.528299
      6          6           0       -1.311211   -1.523403    0.119138
      7          6           0       -1.627983    0.889124   -0.639573
      8          8           0        0.329385    2.270864   -0.531047
      9          6           0        1.900282   -0.357282    0.475923
     10          6           0        2.631299    0.936844    0.860250
     11          6           0        2.945937   -1.336421   -0.081274
     12          1           0       -3.680304   -1.059088    1.399903
     13          1           0       -2.576035    0.228255    1.917060
     14          1           0       -3.952184    0.605811    0.867174
     15          1           0       -2.992871   -0.723581   -0.958932
     16          1           0       -0.266749    1.072131    1.016955
     17          1           0        0.516533   -2.317262   -0.680923
     18          1           0       -0.430734   -1.413326   -1.833920
     19          1           0        1.184516    0.164340   -1.483665
     20          1           0       -0.982162   -1.505841    1.165868
     21          1           0       -1.804195   -2.491065   -0.033762
     22          1           0       -2.228857    1.774673   -0.397478
     23          1           0       -1.569583    0.881706   -1.736927
     24          1           0       -0.247081    2.981463   -0.202049
     25          1           0        1.491779   -0.791046    1.397873
     26          1           0        3.000047    1.461876   -0.027304
     27          1           0        1.983475    1.615613    1.422426
     28          1           0        3.491487    0.722264    1.504324
     29          1           0        2.541394   -2.342509   -0.214677
     30          1           0        3.794729   -1.431174    0.605372
     31          1           0        3.332798   -0.992655   -1.046602
 ---------------------------------------------------------------------
 Rotational constants (GHZ):      1.6181861      0.7551700      0.6052025
 Standard basis: STO-3G (5D, 7F)
 There are    75 symmetry adapted basis functions of A   symmetry.
 Integral buffers will be    131072 words long.
 Raffenetti 1 integral format.
 Two-electron integral symmetry is turned on.
    75 basis functions,   225 primitive gaussians,    75 cartesian basis functions
    44 alpha electrons       44 beta electrons
       nuclear repulsion energy       693.0963952405 Hartrees.
 NAtoms=   31 NActive=   31 NUniq=   31 SFac= 1.00D+00 NAtFMM=   60 NAOKFM=F Big=F
 One-electron integrals computed using PRISM.
 NBasis=    75 RedAO= T  NBF=    75
 NBsUse=    75 1.00D-06 NBFU=    75
 Harris functional with IExCor=  205 diagonalized for initial guess.
 ExpMin= 1.69D-01 ExpMax= 1.31D+02 ExpMxC= 1.31D+02 IAcc=1 IRadAn=         1 AccDes= 0.00D+00
 HarFok:  IExCor=  205 AccDes= 0.00D+00 IRadAn=         1 IDoV= 1
 ScaDFX=  1.000000  1.000000  1.000000  1.000000
 FoFCou: FMM=F IPFlag=           0 FMFlag=      100000 FMFlg1=           0
         NFxFlg=           0 DoJE=T BraDBF=F KetDBF=T FulRan=T
         Omega=  0.000000  0.000000  1.000000  0.000000  0.000000 ICntrl=     500 IOpCl=  0
         NMat0=    1 NMatS0=    1 NMatT0=    0 NMatD0=    1 NMtDS0=    0 NMtDT0=    0
         I1Cent=           4 NGrid=           0.
 Petite list used in FoFCou.
 Initial guess orbital symmetries:
       Occupied  (A) (A) (A) (A) (A) (A) (A) (A) (A) (A) (A) (A)
                 (A) (A) (A) (A) (A) (A) (A) (A) (A) (A) (A) (A)
                 (A) (A) (A) (A) (A) (A) (A) (A) (A) (A) (A) (A)
                 (A) (A) (A) (A) (A) (A) (A) (A)
       Virtual   (A) (A) (A) (A) (A) (A) (A) (A) (A) (A) (A) (A)
                 (A) (A) (A) (A) (A) (A) (A) (A) (A) (A) (A) (A)
                 (A) (A) (A) (A) (A) (A) (A)
 The electronic state of the initial guess is 1-A.
 Requested convergence on RMS density matrix=1.00D-08 within 128 cycles.
 Requested convergence on MAX density matrix=1.00D-06.
 Requested convergence on             energy=1.00D-06.
 No special actions if energy rises.
 Keep R1 ints in memory in canonical form, NReq=4898789.
 SCF Done:  E(RHF) =  -459.611752977     A.U. after   10 cycles
             Convg  =    0.5537D-08             -V/T =  2.0090
 Range of M.O.s used for correlation:     1    75
 NBasis=    75 NAE=    44 NBE=    44 NFC=     0 NFV=     0
 NROrb=     75 NOA=    44 NOB=    44 NVA=    31 NVB=    31
          Differentiating once with respect to magnetic field using GIAOs.
          Electric field/nuclear overlap derivatives assumed to be zero.
          Keep R3 ints in memory in canonical form, NReq=4863575.
 FoFCou: FMM=F IPFlag=           0 FMFlag=           0 FMFlg1=           0
         NFxFlg=           0 DoJE=F BraDBF=F KetDBF=T FulRan=T
         Omega=  0.000000  0.000000  1.000000  0.000000  0.000000 ICntrl=    6100 IOpCl=  0
         NMat0=    1 NMatS0=    1 NMatT0=    0 NMatD0=    1 NMtDS0=    0 NMtDT0=    0
         I1Cent=           7 NGrid=          31.
 Symmetry not used in FoFCou.
          There are     3 degrees of freedom in the 1st order CPHF.  IDoFFX=0.
      3 vectors produced by pass  0 Test12= 4.55D-14 3.33D-08 XBig12= 7.40D+00 4.65D-01.
 AX will form     3 AO Fock derivatives at one time.
      3 vectors produced by pass  1 Test12= 4.55D-14 3.33D-08 XBig12= 1.17D-02 1.45D-02.
      3 vectors produced by pass  2 Test12= 4.55D-14 3.33D-08 XBig12= 1.04D-04 2.26D-03.
      3 vectors produced by pass  3 Test12= 4.55D-14 3.33D-08 XBig12= 1.91D-06 3.30D-04.
      3 vectors produced by pass  4 Test12= 4.55D-14 3.33D-08 XBig12= 1.63D-08 2.71D-05.
      3 vectors produced by pass  5 Test12= 4.55D-14 3.33D-08 XBig12= 2.13D-10 2.11D-06.
      3 vectors produced by pass  6 Test12= 4.55D-14 3.33D-08 XBig12= 2.52D-12 1.88D-07.
 Inverted reduced A of dimension    21 with in-core refinement.
 Calculating GIAO nuclear magnetic shielding tensors.
 SCF GIAO Magnetic shielding tensor (ppm):
      1  C    Isotropic =   221.0639   Anisotropy =    26.4933
   XX=   223.7317   YX=    -6.9145   ZX=   -11.1744
   XY=    -4.2062   YY=   214.4314   ZY=     1.2439
   XZ=   -16.1515   YZ=    -0.8428   ZZ=   225.0286
   Eigenvalues:   208.0999   216.3657   238.7261
      2  C    Isotropic =   216.3243   Anisotropy =     9.4945
   XX=   220.8910   YX=    -0.9538   ZX=    -4.9142
   XY=    -2.2023   YY=   219.0432   ZY=    -1.1571
   XZ=    -4.2411   YZ=    -3.1376   ZZ=   209.0388
   Eigenvalues:   206.9409   219.3781   222.6540
      3  C    Isotropic =   188.1140   Anisotropy =    40.7676
   XX=   184.3143   YX=     8.9153   ZX=    -3.1638
   XY=     6.9216   YY=   210.2334   ZY=   -10.1131
   XZ=    -3.0566   YZ=   -11.7179   ZZ=   169.7941
   Eigenvalues:   166.9627   182.0868   215.2924
      4  C    Isotropic =   218.6759   Anisotropy =    15.1346
   XX=   224.8858   YX=     5.5951   ZX=    -1.4340
   XY=     5.3291   YY=   221.0717   ZY=     2.6652
   XZ=    -2.1891   YZ=     2.9949   ZZ=   210.0703
   Eigenvalues:   208.7368   218.5252   228.7656
      5  C    Isotropic =   208.0177   Anisotropy =    15.6999
   XX=   215.9659   YX=    -4.8717   ZX=     3.3246
   XY=    -4.1754   YY=   207.4921   ZY=     1.4642
   XZ=     3.7750   YZ=    -0.8673   ZZ=   200.5950
   Eigenvalues:   199.5807   205.9881   218.4843
      6  C    Isotropic =   217.6908   Anisotropy =    18.7502
   XX=   222.1482   YX=    -7.7621   ZX=    -6.0814
   XY=    -9.7860   YY=   218.4386   ZY=     0.4589
   XZ=    -4.2325   YZ=    -0.5046   ZZ=   212.4856
   Eigenvalues:   208.2548   214.6267   230.1909
      7  C    Isotropic =   214.9854   Anisotropy =    18.0086
   XX=   222.6446   YX=     7.3650   ZX=    -2.1381
   XY=     3.4135   YY=   220.0447   ZY=    -3.5568
   XZ=     0.3727   YZ=     0.6531   ZZ=   202.2668
   Eigenvalues:   202.1386   215.8265   226.9911
      8  O    Isotropic =   353.0533   Anisotropy =    92.5151
   XX=   362.4532   YX=   -50.1197   ZX=    -7.1290
   XY=   -29.4462   YY=   370.3102   ZY=    17.6235
   XZ=   -21.4417   YZ=    29.7495   ZZ=   326.3963
   Eigenvalues:   315.6447   328.7850   414.7300
      9  C    Isotropic =   212.5923   Anisotropy =    15.8655
   XX=   217.9777   YX=    -4.4178   ZX=     6.7017
   XY=    -4.0731   YY=   211.6821   ZY=     2.1503
   XZ=     9.6841   YZ=     2.9991   ZZ=   208.1171
   Eigenvalues:   201.5766   213.0310   223.1693
     10  C    Isotropic =   221.1693   Anisotropy =    23.6848
   XX=   221.1431   YX=     7.7842   ZX=     7.5478
   XY=     5.4564   YY=   231.0222   ZY=     6.8501
   XZ=     6.3510   YZ=     4.2354   ZZ=   211.3426
   Eigenvalues:   207.5579   218.9908   236.9592
     11  C    Isotropic =   221.1220   Anisotropy =    27.2335
   XX=   226.1198   YX=   -13.6693   ZX=    -3.6697
   XY=   -12.2287   YY=   221.3834   ZY=     5.9326
   XZ=    -3.0497   YZ=     9.0124   ZZ=   215.8627
   Eigenvalues:   208.3111   215.7772   239.2776
     12  H    Isotropic =    32.4650   Anisotropy =    13.8704
   XX=    33.8594   YX=     4.5107   ZX=    -5.1563
   XY=     4.7173   YY=    33.5553   ZY=    -3.3088
   XZ=    -5.4557   YZ=    -3.7766   ZZ=    29.9804
   Eigenvalues:    26.2550    29.4282    41.7120
     13  H    Isotropic =    32.7296   Anisotropy =     9.5267
   XX=    31.8637   YX=     1.0803   ZX=     0.2432
   XY=     1.0249   YY=    28.3923   ZY=     3.4565
   XZ=     0.2158   YZ=     3.4097   ZZ=    37.9327
   Eigenvalues:    27.1022    32.0058    39.0807
     14  H    Isotropic =    32.5976   Anisotropy =    14.1438
   XX=    37.7843   YX=    -6.4310   ZX=    -1.7532
   XY=    -6.3774   YY=    31.8773   ZY=    -0.5334
   XZ=    -2.0108   YZ=    -0.1291   ZZ=    28.1312
   Eigenvalues:    26.5917    29.1742    42.0268
     15  H    Isotropic =    32.3685   Anisotropy =    14.1282
   XX=    35.1716   YX=     3.0597   ZX=     6.2418
   XY=     3.1219   YY=    28.4503   ZY=     2.6718
   XZ=     6.0176   YZ=     2.7739   ZZ=    33.4836
   Eigenvalues:    27.1777    28.1405    41.7873
     16  H    Isotropic =    32.1722   Anisotropy =     5.1278
   XX=    32.4179   YX=     0.5749   ZX=    -0.5127
   XY=     0.1721   YY=    29.1428   ZY=     1.5423
   XZ=     0.6396   YZ=     2.4716   ZZ=    34.9557
   Eigenvalues:    28.4882    32.4376    35.5907
     17  H    Isotropic =    32.4318   Anisotropy =    12.9794
   XX=    34.7624   YX=    -4.1792   ZX=    -0.1062
   XY=    -4.6481   YY=    37.8119   ZY=     2.0786
   XZ=     0.3200   YZ=     1.6122   ZZ=    24.7211
   Eigenvalues:    24.4097    31.8011    41.0847
     18  H    Isotropic =    32.3849   Anisotropy =    12.7191
   XX=    29.4561   YX=     0.7053   ZX=     2.1261
   XY=     0.6124   YY=    28.4531   ZY=     3.8951
   XZ=     1.7080   YZ=     3.8940   ZZ=    39.2457
   Eigenvalues:    27.1938    29.0967    40.8643
     19  H    Isotropic =    32.1552   Anisotropy =    10.1018
   XX=    31.9331   YX=     0.6687   ZX=    -3.8386
   XY=     0.6397   YY=    28.4940   ZY=    -2.1309
   XZ=    -3.9639   YZ=    -2.3725   ZZ=    36.0384
   Eigenvalues:    27.8037    29.7721    38.8897
     20  H    Isotropic =    32.9823   Anisotropy =     8.6746
   XX=    32.4781   YX=    -0.5599   ZX=     0.6827
   XY=    -0.5665   YY=    28.9292   ZY=    -3.1116
   XZ=     0.6648   YZ=    -3.4875   ZZ=    37.5395
   Eigenvalues:    27.7885    32.3929    38.7654
     21  H    Isotropic =    32.3996   Anisotropy =    14.8117
   XX=    31.5322   YX=     4.5869   ZX=    -0.9429
   XY=     4.6833   YY=    40.2698   ZY=     0.5551
   XZ=    -0.8196   YZ=     0.7359   ZZ=    25.3966
   Eigenvalues:    25.1352    29.7894    42.2740
     22  H    Isotropic =    32.9474   Anisotropy =    12.3630
   XX=    34.2642   YX=    -4.4982   ZX=    -0.8138
   XY=    -5.1336   YY=    37.8347   ZY=    -0.6341
   XZ=    -1.5937   YZ=    -0.4789   ZZ=    26.7433
   Eigenvalues:    26.3647    31.2881    41.1894
     23  H    Isotropic =    32.0539   Anisotropy =    11.7425
   XX=    29.1320   YX=    -0.0170   ZX=     1.9498
   XY=    -0.0128   YY=    28.2300   ZY=    -2.8239
   XZ=     2.0323   YZ=    -2.9383   ZZ=    38.7997
   Eigenvalues:    27.3421    28.9373    39.8822
     24  H    Isotropic =    35.0286   Anisotropy =    19.1484
   XX=    32.7036   YX=    -5.2828   ZX=    -3.4474
   XY=    -3.9483   YY=    45.8171   ZY=     1.9549
   XZ=    -3.1305   YZ=     2.8438   ZZ=    26.5650
   Eigenvalues:    25.1283    32.1633    47.7941
     25  H    Isotropic =    32.7277   Anisotropy =     8.9141
   XX=    32.2835   YX=     1.4663   ZX=    -1.3351
   XY=     1.1961   YY=    29.5183   ZY=    -3.9819
   XZ=    -1.2007   YZ=    -3.9943   ZZ=    36.3812
   Eigenvalues:    27.5838    31.9288    38.6704
     26  H    Isotropic =    32.2021   Anisotropy =    10.9061
   XX=    32.7876   YX=     4.2163   ZX=    -2.1714
   XY=     4.4265   YY=    33.1546   ZY=    -3.9508
   XZ=    -2.1600   YZ=    -3.9408   ZZ=    30.6641
   Eigenvalues:    27.5209    29.6126    39.4728
     27  H    Isotropic =    32.2082   Anisotropy =     9.8666
   XX=    32.5683   YX=    -2.1785   ZX=     0.2159
   XY=    -2.4817   YY=    33.6895   ZY=     6.3900
   XZ=     0.7532   YZ=     5.8720   ZZ=    30.3666
   Eigenvalues:    25.2231    32.6155    38.7859
     28  H    Isotropic =    32.5311   Anisotropy =    14.3273
   XX=    36.6812   YX=     0.3812   ZX=     7.3781
   XY=     0.5629   YY=    29.2936   ZY=     1.4728
   XZ=     7.3989   YZ=     1.5057   ZZ=    31.6186
   Eigenvalues:    26.0597    29.4511    42.0827
     29  H    Isotropic =    32.3497   Anisotropy =    11.3563
   XX=    31.8805   YX=    -0.5346   ZX=     0.5822
   XY=    -0.3065   YY=    39.4988   ZY=     2.3224
   XZ=     0.9384   YZ=     2.5192   ZZ=    25.6699
   Eigenvalues:    25.1583    31.9703    39.9206
     30  H    Isotropic =    32.4757   Anisotropy =    14.1828
   XX=    37.7980   YX=    -4.1661   ZX=     5.5249
   XY=    -4.3711   YY=    29.8524   ZY=    -0.4664
   XZ=     5.4110   YZ=    -0.5238   ZZ=    29.7767
   Eigenvalues:    26.1477    29.3486    41.9309
     31  H    Isotropic =    32.5407   Anisotropy =    11.7918
   XX=    33.6204   YX=    -1.1563   ZX=    -5.7355
   XY=    -1.1613   YY=    28.5105   ZY=    -0.0903
   XZ=    -5.7529   YZ=    -0.4203   ZZ=    35.4913
   Eigenvalues:    27.5556    29.6647    40.4019
 End of Minotr Frequency-dependent properties file   721 does not exist.
 End of Minotr Frequency-dependent properties file   722 does not exist.

 **********************************************************************

            Population analysis using the SCF density.

 **********************************************************************

 Orbital symmetries:
       Occupied  (A) (A) (A) (A) (A) (A) (A) (A) (A) (A) (A) (A)
                 (A) (A) (A) (A) (A) (A) (A) (A) (A) (A) (A) (A)
                 (A) (A) (A) (A) (A) (A) (A) (A) (A) (A) (A) (A)
                 (A) (A) (A) (A) (A) (A) (A) (A)
       Virtual   (A) (A) (A) (A) (A) (A) (A) (A) (A) (A) (A) (A)
                 (A) (A) (A) (A) (A) (A) (A) (A) (A) (A) (A) (A)
                 (A) (A) (A) (A) (A) (A) (A)
 The electronic state is 1-A.
 Alpha  occ. eigenvalues --  -20.23635 -11.08460 -11.04721 -11.04292 -11.04215
 Alpha  occ. eigenvalues --  -11.03675 -11.03602 -11.03525 -11.03360 -11.02643
 Alpha  occ. eigenvalues --  -11.02167  -1.27686  -1.08174  -1.03356  -0.96711
 Alpha  occ. eigenvalues --   -0.94459  -0.88239  -0.87866  -0.80109  -0.77857
 Alpha  occ. eigenvalues --   -0.73568  -0.68555  -0.63160  -0.61252  -0.58439
 Alpha  occ. eigenvalues --   -0.56835  -0.56249  -0.54533  -0.54110  -0.51763
 Alpha  occ. eigenvalues --   -0.50288  -0.49548  -0.49284  -0.47848  -0.46516
 Alpha  occ. eigenvalues --   -0.46015  -0.44065  -0.42358  -0.42273  -0.40723
 Alpha  occ. eigenvalues --   -0.39023  -0.38860  -0.36677  -0.32901
 Alpha virt. eigenvalues --    0.53058   0.55008   0.56953   0.59666   0.61338
 Alpha virt. eigenvalues --    0.61795   0.62338   0.64648   0.65113   0.67213
 Alpha virt. eigenvalues --    0.67920   0.69596   0.70227   0.71375   0.71691
 Alpha virt. eigenvalues --    0.72592   0.73066   0.74461   0.75673   0.76453
 Alpha virt. eigenvalues --    0.76904   0.77295   0.77728   0.78902   0.79939
 Alpha virt. eigenvalues --    0.81007   0.82197   0.83790   0.84999   0.86518
 Alpha virt. eigenvalues --    0.87724
          Condensed to atoms (all electrons):
              1          2          3          4          5          6
     1  C    4.742106   0.364811  -0.000156   0.000760   0.000015  -0.024943
     2  C    0.364811   4.747448  -0.019854  -0.022694  -0.002316   0.362735
     3  C   -0.000156  -0.019854   4.742886  -0.021147   0.357834  -0.007828
     4  C    0.000760  -0.022694  -0.021147   4.758874   0.359261   0.362982
     5  C    0.000015  -0.002316   0.357834   0.359261   4.774513  -0.021531
     6  C   -0.024943   0.362735  -0.007828   0.362982  -0.021531   4.757313
     7  C   -0.024166   0.359834   0.358691  -0.007452  -0.021263  -0.022402
     8  O   -0.000001   0.000259   0.267281   0.000220  -0.017232   0.000006
     9  C    0.000000   0.000010  -0.019891  -0.020153   0.357876  -0.000185
    10  C    0.000000   0.000000  -0.002719   0.000561  -0.019787  -0.000002
    11  C    0.000000   0.000000   0.000571  -0.002423  -0.020718   0.000026
    12  H    0.382489  -0.020093  -0.000010   0.000014   0.000000  -0.002218
    13  H    0.382010  -0.020754  -0.000044   0.000016   0.000010  -0.002315
    14  H    0.382393  -0.020255   0.000018  -0.000019  -0.000001   0.001303
    15  H   -0.024896   0.383433   0.001233  -0.000122   0.000007  -0.023566
    16  H    0.000003  -0.001564   0.374627   0.000313  -0.023487  -0.000009
    17  H   -0.000016   0.001294   0.001006   0.383914  -0.019221  -0.022032
    18  H    0.000010  -0.002807   0.000200   0.381748  -0.021975  -0.023439
    19  H    0.000000   0.000041  -0.022857  -0.023185   0.378747   0.001228
    20  H   -0.005003  -0.021799  -0.000044  -0.023356  -0.002387   0.381603
    21  H   -0.000060  -0.021727   0.000065  -0.020981   0.001206   0.383340
    22  H   -0.005209  -0.020167  -0.021077   0.000071   0.001080   0.001092
    23  H    0.001310  -0.021162  -0.023171  -0.000225  -0.002442   0.000262
    24  H    0.000001   0.000004  -0.040768  -0.000039   0.002464  -0.000001
    25  H    0.000000   0.000010  -0.001250  -0.002120  -0.023505  -0.000069
    26  H    0.000000   0.000000  -0.000040   0.000006  -0.002131   0.000000
    27  H    0.000000   0.000000  -0.000910   0.000004  -0.001167   0.000001
    28  H    0.000000   0.000000   0.000027  -0.000013   0.001072   0.000000
    29  H    0.000000   0.000000  -0.000001  -0.001352  -0.001046   0.000021
    30  H    0.000000   0.000000  -0.000012   0.000031   0.001089   0.000000
    31  H    0.000000   0.000000   0.000013   0.000063  -0.002481  -0.000001
              7          8          9         10         11         12
     1  C   -0.024166  -0.000001   0.000000   0.000000   0.000000   0.382489
     2  C    0.359834   0.000259   0.000010   0.000000   0.000000  -0.020093
     3  C    0.358691   0.267281  -0.019891  -0.002719   0.000571  -0.000010
     4  C   -0.007452   0.000220  -0.020153   0.000561  -0.002423   0.000014
     5  C   -0.021263  -0.017232   0.357876  -0.019787  -0.020718   0.000000
     6  C   -0.022402   0.000006  -0.000185  -0.000002   0.000026  -0.002218
     7  C    4.787265  -0.020364   0.000572   0.000014  -0.000004   0.001290
     8  O   -0.020364   7.847353   0.000090  -0.000612  -0.000002   0.000000
     9  C    0.000572   0.000090   4.741559   0.364315   0.364661   0.000000
    10  C    0.000014  -0.000612   0.364315   4.741266  -0.027639   0.000000
    11  C   -0.000004  -0.000002   0.364661  -0.027639   4.745049   0.000000
    12  H    0.001290   0.000000   0.000000   0.000000   0.000000   0.629471
    13  H   -0.001905  -0.000002   0.000000   0.000000   0.000000  -0.021663
    14  H   -0.002354   0.000000   0.000000   0.000000   0.000000  -0.021681
    15  H   -0.024773  -0.000006   0.000000   0.000000   0.000000  -0.002272
    16  H   -0.028004  -0.018677  -0.004051  -0.000666   0.000021  -0.000008
    17  H    0.000067  -0.000003  -0.004018   0.000026  -0.001553  -0.000001
    18  H   -0.000355  -0.000001   0.001153  -0.000013   0.000045   0.000000
    19  H   -0.000155  -0.001411  -0.024209  -0.001397  -0.003022   0.000000
    20  H    0.000065   0.000000   0.000017  -0.000006   0.000007  -0.000107
    21  H    0.001184   0.000000  -0.000006   0.000000   0.000000   0.000170
    22  H    0.381449  -0.001364  -0.000012   0.000000   0.000000   0.000075
    23  H    0.380953  -0.000583   0.000005  -0.000001   0.000000  -0.000037
    24  H   -0.003078   0.257227  -0.000030   0.000027   0.000001   0.000000
    25  H    0.000000   0.000005   0.379655  -0.024595  -0.024104   0.000000
    26  H   -0.000002  -0.000063  -0.020588   0.382447  -0.001682   0.000000
    27  H    0.000012  -0.000224  -0.019524   0.382642   0.001369   0.000000
    28  H    0.000000   0.000015  -0.019707   0.382026  -0.003742   0.000000
    29  H    0.000000   0.000000  -0.019158   0.001360   0.382418   0.000000
    30  H    0.000000   0.000000  -0.019495  -0.003743   0.382508   0.000000
    31  H    0.000000   0.000000  -0.020725  -0.001649   0.381845   0.000000
             13         14         15         16         17         18
     1  C    0.382010   0.382393  -0.024896   0.000003  -0.000016   0.000010
     2  C   -0.020754  -0.020255   0.383433  -0.001564   0.001294  -0.002807
     3  C   -0.000044   0.000018   0.001233   0.374627   0.001006   0.000200
     4  C    0.000016  -0.000019  -0.000122   0.000313   0.383914   0.381748
     5  C    0.000010  -0.000001   0.000007  -0.023487  -0.019221  -0.021975
     6  C   -0.002315   0.001303  -0.023566  -0.000009  -0.022032  -0.023439
     7  C   -0.001905  -0.002354  -0.024773  -0.028004   0.000067  -0.000355
     8  O   -0.000002   0.000000  -0.000006  -0.018677  -0.000003  -0.000001
     9  C    0.000000   0.000000   0.000000  -0.004051  -0.004018   0.001153
    10  C    0.000000   0.000000   0.000000  -0.000666   0.000026  -0.000013
    11  C    0.000000   0.000000   0.000000   0.000021  -0.001553   0.000045
    12  H   -0.021663  -0.021681  -0.002272  -0.000008  -0.000001   0.000000
    13  H    0.633479  -0.021946   0.001940  -0.000015  -0.000001  -0.000001
    14  H   -0.021946   0.632322  -0.002546   0.000009   0.000000   0.000000
    15  H    0.001940  -0.002546   0.652096  -0.000010  -0.000021   0.000321
    16  H   -0.000015   0.000009  -0.000010   0.665748  -0.000029  -0.000019
    17  H   -0.000001   0.000000  -0.000021  -0.000029   0.634685  -0.024220
    18  H   -0.000001   0.000000   0.000321  -0.000019  -0.024220   0.646812
    19  H    0.000000   0.000000   0.000000   0.001720   0.000327  -0.005944
    20  H    0.000327   0.000066   0.001839  -0.000422  -0.001806   0.002024
    21  H    0.000010  -0.000022  -0.005494   0.000004  -0.002819  -0.001889
    22  H    0.000032   0.000084   0.000437  -0.002079   0.000000   0.000006
    23  H    0.000001   0.000045  -0.006236   0.001997   0.000003  -0.000526
    24  H    0.000000   0.000000  -0.000001  -0.003487   0.000001   0.000000
    25  H    0.000000   0.000000   0.000000   0.000365   0.000088   0.000003
    26  H    0.000000   0.000000   0.000000   0.000045   0.000001   0.000000
    27  H    0.000000   0.000000   0.000000  -0.000624   0.000000   0.000000
    28  H    0.000000   0.000000   0.000000  -0.000011  -0.000002   0.000000
    29  H    0.000000   0.000000   0.000000   0.000001  -0.000962  -0.000011
    30  H    0.000000   0.000000   0.000000  -0.000001  -0.000007   0.000001
    31  H    0.000000   0.000000   0.000000   0.000000   0.000051  -0.000014
             19         20         21         22         23         24
     1  C    0.000000  -0.005003  -0.000060  -0.005209   0.001310   0.000001
     2  C    0.000041  -0.021799  -0.021727  -0.020167  -0.021162   0.000004
     3  C   -0.022857  -0.000044   0.000065  -0.021077  -0.023171  -0.040768
     4  C   -0.023185  -0.023356  -0.020981   0.000071  -0.000225  -0.000039
     5  C    0.378747  -0.002387   0.001206   0.001080  -0.002442   0.002464
     6  C    0.001228   0.381603   0.383340   0.001092   0.000262  -0.000001
     7  C   -0.000155   0.000065   0.001184   0.381449   0.380953  -0.003078
     8  O   -0.001411   0.000000   0.000000  -0.001364  -0.000583   0.257227
     9  C   -0.024209   0.000017  -0.000006  -0.000012   0.000005  -0.000030
    10  C   -0.001397  -0.000006   0.000000   0.000000  -0.000001   0.000027
    11  C   -0.003022   0.000007   0.000000   0.000000   0.000000   0.000001
    12  H    0.000000  -0.000107   0.000170   0.000075  -0.000037   0.000000
    13  H    0.000000   0.000327   0.000010   0.000032   0.000001   0.000000
    14  H    0.000000   0.000066  -0.000022   0.000084   0.000045   0.000000
    15  H    0.000000   0.001839  -0.005494   0.000437  -0.006236  -0.000001
    16  H    0.001720  -0.000422   0.000004  -0.002079   0.001997  -0.003487
    17  H    0.000327  -0.001806  -0.002819   0.000000   0.000003   0.000001
    18  H   -0.005944   0.002024  -0.001889   0.000006  -0.000526   0.000000
    19  H    0.640187   0.000007  -0.000032  -0.000026   0.000248   0.000096
    20  H    0.000007   0.645235  -0.023874  -0.000018  -0.000024   0.000000
    21  H   -0.000032  -0.023874   0.639749  -0.000026  -0.000016   0.000000
    22  H   -0.000026  -0.000018  -0.000026   0.643945  -0.025028   0.000495
    23  H    0.000248  -0.000024  -0.000016  -0.025028   0.640282  -0.000014
    24  H    0.000096   0.000000   0.000000   0.000495  -0.000014   0.611908
    25  H    0.001820   0.000034  -0.000012   0.000000   0.000000   0.000000
    26  H    0.000399   0.000000   0.000000   0.000000   0.000000   0.000010
    27  H   -0.000004   0.000000   0.000000   0.000001   0.000000   0.000057
    28  H   -0.000002   0.000000   0.000000   0.000000   0.000000  -0.000002
    29  H    0.000008   0.000003   0.000001   0.000000   0.000000   0.000000
    30  H    0.000023   0.000000   0.000000   0.000000   0.000000   0.000000
    31  H    0.000404   0.000000   0.000000   0.000000   0.000000   0.000000
             25         26         27         28         29         30
     1  C    0.000000   0.000000   0.000000   0.000000   0.000000   0.000000
     2  C    0.000010   0.000000   0.000000   0.000000   0.000000   0.000000
     3  C   -0.001250  -0.000040  -0.000910   0.000027  -0.000001  -0.000012
     4  C   -0.002120   0.000006   0.000004  -0.000013  -0.001352   0.000031
     5  C   -0.023505  -0.002131  -0.001167   0.001072  -0.001046   0.001089
     6  C   -0.000069   0.000000   0.000001   0.000000   0.000021   0.000000
     7  C    0.000000  -0.000002   0.000012   0.000000   0.000000   0.000000
     8  O    0.000005  -0.000063  -0.000224   0.000015   0.000000   0.000000
     9  C    0.379655  -0.020588  -0.019524  -0.019707  -0.019158  -0.019495
    10  C   -0.024595   0.382447   0.382642   0.382026   0.001360  -0.003743
    11  C   -0.024104  -0.001682   0.001369  -0.003742   0.382418   0.382508
    12  H    0.000000   0.000000   0.000000   0.000000   0.000000   0.000000
    13  H    0.000000   0.000000   0.000000   0.000000   0.000000   0.000000
    14  H    0.000000   0.000000   0.000000   0.000000   0.000000   0.000000
    15  H    0.000000   0.000000   0.000000   0.000000   0.000000   0.000000
    16  H    0.000365   0.000045  -0.000624  -0.000011   0.000001  -0.000001
    17  H    0.000088   0.000001   0.000000  -0.000002  -0.000962  -0.000007
    18  H    0.000003   0.000000   0.000000   0.000000  -0.000011   0.000001
    19  H    0.001820   0.000399  -0.000004  -0.000002   0.000008   0.000023
    20  H    0.000034   0.000000   0.000000   0.000000   0.000003   0.000000
    21  H   -0.000012   0.000000   0.000000   0.000000   0.000001   0.000000
    22  H    0.000000   0.000000   0.000001   0.000000   0.000000   0.000000
    23  H    0.000000   0.000000   0.000000   0.000000   0.000000   0.000000
    24  H    0.000000   0.000010   0.000057  -0.000002   0.000000   0.000000
    25  H    0.656955   0.001887  -0.002776  -0.001701  -0.002675  -0.001602
    26  H    0.001887   0.621953  -0.020925  -0.021714   0.000002   0.000006
    27  H   -0.002776  -0.020925   0.630214  -0.022920  -0.000039   0.000061
    28  H   -0.001701  -0.021714  -0.022920   0.636404   0.000059  -0.000146
    29  H   -0.002675   0.000002  -0.000039   0.000059   0.634034  -0.022851
    30  H   -0.001602   0.000006   0.000061  -0.000146  -0.022851   0.631897
    31  H    0.001860   0.000262   0.000001   0.000008  -0.021750  -0.021512
             31
     1  C    0.000000
     2  C    0.000000
     3  C    0.000013
     4  C    0.000063
     5  C   -0.002481
     6  C   -0.000001
     7  C    0.000000
     8  O    0.000000
     9  C   -0.020725
    10  C   -0.001649
    11  C    0.381845
    12  H    0.000000
    13  H    0.000000
    14  H    0.000000
    15  H    0.000000
    16  H    0.000000
    17  H    0.000051
    18  H   -0.000014
    19  H    0.000404
    20  H    0.000000
    21  H    0.000000
    22  H    0.000000
    23  H    0.000000
    24  H    0.000000
    25  H    0.001860
    26  H    0.000262
    27  H    0.000001
    28  H    0.000008
    29  H   -0.021750
    30  H   -0.021512
    31  H    0.630002
 Mulliken atomic charges:
              1
     1  C   -0.171458
     2  C   -0.024688
     3  C    0.077328
     4  C   -0.103557
     5  C   -0.032481
     6  C   -0.101371
     7  C   -0.115119
     8  O   -0.311915
     9  C   -0.018160
    10  C   -0.171854
    11  C   -0.173632
    12  H    0.054581
    13  H    0.050820
    14  H    0.052582
    15  H    0.048635
    16  H    0.038310
    17  H    0.055246
    18  H    0.048890
    19  H    0.056990
    20  H    0.047618
    21  H    0.051229
    22  H    0.046238
    23  H    0.054359
    24  H    0.175128
    25  H    0.041729
    26  H    0.060129
    27  H    0.054752
    28  H    0.050349
    29  H    0.051942
    30  H    0.053755
    31  H    0.053623
 Sum of Mulliken atomic charges =   0.00000
 Mulliken charges with hydrogens summed into heavy atoms:
              1
     1  C   -0.013474
     2  C    0.023947
     3  C    0.115638
     4  C    0.000578
     5  C    0.024509
     6  C   -0.002524
     7  C   -0.014521
     8  O   -0.136786
     9  C    0.023569
    10  C   -0.006624
    11  C   -0.014312
 Sum of Mulliken charges with hydrogens summed into heavy atoms =   0.00000
 Electronic spatial extent (au):  <R**2>=           2110.9127
 Charge=              0.0000 electrons
 Dipole moment (field-independent basis, Debye):
    X=             -1.1628    Y=             -0.2902    Z=              0.6289  Tot=              1.3534
 Quadrupole moment (field-independent basis, Debye-Ang):
   XX=            -68.2700   YY=            -66.9182   ZZ=            -67.8714
   XY=             -2.8874   XZ=              0.7904   YZ=              1.8883
 Traceless Quadrupole moment (field-independent basis, Debye-Ang):
   XX=             -0.5835   YY=              0.7683   ZZ=             -0.1849
   XY=             -2.8874   XZ=              0.7904   YZ=              1.8883
 Octapole moment (field-independent basis, Debye-Ang**2):
  XXX=              2.1967  YYY=             19.7904  ZZZ=             -3.7065  XYY=             -9.4244
  XXY=              3.8495  XXZ=             -2.4877  XZZ=              1.4940  YZZ=              2.9622
  YYZ=              3.5896  XYZ=              0.0980
 Hexadecapole moment (field-independent basis, Debye-Ang**3):
 XXXX=          -1744.9178 YYYY=           -622.1372 ZZZZ=           -280.5526 XXXY=              5.2474
 XXXZ=              8.8831 YYYX=            -15.4987 YYYZ=              2.7046 ZZZX=              1.6985
 ZZZY=             -5.5050 XXYY=           -402.1828 XXZZ=           -337.0307 YYZZ=           -163.7899
 XXYZ=             -6.2182 YYXZ=              1.4741 ZZXY=              1.7058
 N-N= 6.930963952405D+02 E-N=-2.458272126426D+03  KE= 4.555277942048D+02
 ******************************Gaussian NBO Version 3.1******************************
             N A T U R A L   A T O M I C   O R B I T A L   A N D
          N A T U R A L   B O N D   O R B I T A L   A N A L Y S I S
 ******************************Gaussian NBO Version 3.1******************************
       /RESON  / : Allow strongly delocalized NBO set
       /NLMO   / : Form Natural Localized Molecular Orbitals
       /NMR /    : Analyze NMR Sheilding Tensor 

 Analyzing the SCF density

 Job title: comment                                                         

 Storage needed:     19864 in NPA,     23691 in NBO,     45933 in NLMO (  33549317 available)


 NATURAL POPULATIONS:  Natural atomic orbital occupancies 
                                                          
   NAO  Atom  No  lang   Type(AO)    Occupancy      Energy
 ----------------------------------------------------------
     1    C    1  S      Cor( 1S)     1.99998     -10.96715
     2    C    1  S      Val( 2S)     1.08057      -0.18441
     3    C    1  px     Val( 2p)     1.01524       0.08255
     4    C    1  py     Val( 2p)     1.02703       0.08178
     5    C    1  pz     Val( 2p)     1.00350       0.08551

     6    C    2  S      Cor( 1S)     1.99997     -10.99004
     7    C    2  S      Val( 2S)     1.08080      -0.19393
     8    C    2  px     Val( 2p)     0.97115       0.10386
     9    C    2  py     Val( 2p)     0.95813       0.10869
    10    C    2  pz     Val( 2p)     0.97601       0.10562

    11    C    3  S      Cor( 1S)     1.99989     -11.03397
    12    C    3  S      Val( 2S)     1.08887      -0.21705
    13    C    3  px     Val( 2p)     0.93739       0.09852
    14    C    3  py     Val( 2p)     0.86109       0.10846
    15    C    3  pz     Val( 2p)     0.96732       0.09689

    16    C    4  S      Cor( 1S)     1.99995     -10.97378
    17    C    4  S      Val( 2S)     1.08509      -0.18868
    18    C    4  px     Val( 2p)     0.98791       0.09521
    19    C    4  py     Val( 2p)     0.99041       0.09957
    20    C    4  pz     Val( 2p)     1.00300       0.09374

    21    C    5  S      Cor( 1S)     1.99995     -10.98888
    22    C    5  S      Val( 2S)     1.10584      -0.21205
    23    C    5  px     Val( 2p)     0.95875       0.10785
    24    C    5  py     Val( 2p)     0.95298       0.10998
    25    C    5  pz     Val( 2p)     0.99159       0.09979

    26    C    6  S      Cor( 1S)     1.99996     -10.97477
    27    C    6  S      Val( 2S)     1.08347      -0.18869
    28    C    6  px     Val( 2p)     0.98073       0.09768
    29    C    6  py     Val( 2p)     0.99707       0.09237
    30    C    6  pz     Val( 2p)     1.00278       0.09479

    31    C    7  S      Cor( 1S)     1.99996     -10.97441
    32    C    7  S      Val( 2S)     1.09347      -0.19899
    33    C    7  px     Val( 2p)     0.98950       0.08928
    34    C    7  py     Val( 2p)     0.99076       0.09297
    35    C    7  pz     Val( 2p)     1.01871       0.08317

    36    O    8  S      Cor( 1S)     1.99999     -20.14019
    37    O    8  S      Val( 2S)     1.75037      -0.99800
    38    O    8  px     Val( 2p)     1.63847      -0.24273
    39    O    8  py     Val( 2p)     1.11718      -0.01282
    40    O    8  pz     Val( 2p)     1.82714      -0.31323

    41    C    9  S      Cor( 1S)     1.99996     -10.98769
    42    C    9  S      Val( 2S)     1.08789      -0.19482
    43    C    9  px     Val( 2p)     0.95231       0.11640
    44    C    9  py     Val( 2p)     0.95962       0.11229
    45    C    9  pz     Val( 2p)     0.97633       0.11067

    46    C   10  S      Cor( 1S)     1.99997     -10.95562
    47    C   10  S      Val( 2S)     1.08136      -0.17341
    48    C   10  px     Val( 2p)     1.01770       0.09422
    49    C   10  py     Val( 2p)     1.00211       0.09654
    50    C   10  pz     Val( 2p)     1.02724       0.09457

    51    C   11  S      Cor( 1S)     1.99997     -10.96033
    52    C   11  S      Val( 2S)     1.08176      -0.17873
    53    C   11  px     Val( 2p)     1.01025       0.08857
    54    C   11  py     Val( 2p)     1.01201       0.09260
    55    C   11  pz     Val( 2p)     1.02523       0.08791

    56    H   12  S      Val( 1S)     0.96282       0.07260

    57    H   13  S      Val( 1S)     0.96637       0.06967

    58    H   14  S      Val( 1S)     0.96476       0.07173

    59    H   15  S      Val( 1S)     0.97567       0.06602

    60    H   16  S      Val( 1S)     0.99732       0.04702

    61    H   17  S      Val( 1S)     0.96651       0.07803

    62    H   18  S      Val( 1S)     0.97195       0.07063

    63    H   19  S      Val( 1S)     0.96971       0.07528

    64    H   20  S      Val( 1S)     0.97309       0.06840

    65    H   21  S      Val( 1S)     0.96929       0.06999

    66    H   22  S      Val( 1S)     0.97328       0.06129

    67    H   23  S      Val( 1S)     0.96626       0.07180

    68    H   24  S      Val( 1S)     0.81247       0.07451

    69    H   25  S      Val( 1S)     0.98399       0.06583

    70    H   26  S      Val( 1S)     0.95794       0.09027

    71    H   27  S      Val( 1S)     0.96306       0.08687

    72    H   28  S      Val( 1S)     0.96674       0.08015

    73    H   29  S      Val( 1S)     0.96577       0.08118

    74    H   30  S      Val( 1S)     0.96347       0.07826

    75    H   31  S      Val( 1S)     0.96387       0.07865


 Summary of Natural Population Analysis:                  
                                                          
                                       Natural Population 
                Natural  -----------------------------------------------
    Atom  No    Charge         Core      Valence    Rydberg      Total
 -----------------------------------------------------------------------
      C    1   -0.12631      1.99998     4.12634    0.00000     6.12631
      C    2    0.01395      1.99997     3.98608    0.00000     5.98605
      C    3    0.14544      1.99989     3.85468    0.00000     5.85456
      C    4   -0.06636      1.99995     4.06641    0.00000     6.06636
      C    5   -0.00910      1.99995     4.00915    0.00000     6.00910
      C    6   -0.06402      1.99996     4.06406    0.00000     6.06402
      C    7   -0.09240      1.99996     4.09244    0.00000     6.09240
      O    8   -0.33316      1.99999     6.33317    0.00000     8.33316
      C    9    0.02389      1.99996     3.97615    0.00000     5.97611
      C   10   -0.12837      1.99997     4.12841    0.00000     6.12837
      C   11   -0.12921      1.99997     4.12924    0.00000     6.12921
      H   12    0.03718      0.00000     0.96282    0.00000     0.96282
      H   13    0.03363      0.00000     0.96637    0.00000     0.96637
      H   14    0.03524      0.00000     0.96476    0.00000     0.96476
      H   15    0.02433      0.00000     0.97567    0.00000     0.97567
      H   16    0.00268      0.00000     0.99732    0.00000     0.99732
      H   17    0.03349      0.00000     0.96651    0.00000     0.96651
      H   18    0.02805      0.00000     0.97195    0.00000     0.97195
      H   19    0.03029      0.00000     0.96971    0.00000     0.96971
      H   20    0.02691      0.00000     0.97309    0.00000     0.97309
      H   21    0.03071      0.00000     0.96929    0.00000     0.96929
      H   22    0.02672      0.00000     0.97328    0.00000     0.97328
      H   23    0.03374      0.00000     0.96626    0.00000     0.96626
      H   24    0.18753      0.00000     0.81247    0.00000     0.81247
      H   25    0.01601      0.00000     0.98399    0.00000     0.98399
      H   26    0.04206      0.00000     0.95794    0.00000     0.95794
      H   27    0.03694      0.00000     0.96306    0.00000     0.96306
      H   28    0.03326      0.00000     0.96674    0.00000     0.96674
      H   29    0.03423      0.00000     0.96577    0.00000     0.96577
      H   30    0.03653      0.00000     0.96347    0.00000     0.96347
      H   31    0.03613      0.00000     0.96387    0.00000     0.96387
 =======================================================================
   * Total *    0.00000     21.99954    66.00046    0.00000    88.00000

                                 Natural Population      
 --------------------------------------------------------
   Core                      21.99954 ( 99.9979% of  22)
   Valence                   66.00046 (100.0007% of  66)
   Natural Minimal Basis     88.00000 (100.0000% of  88)
   Natural Rydberg Basis      0.00000 (  0.0000% of  88)
 --------------------------------------------------------

    Atom  No          Natural Electron Configuration
 ----------------------------------------------------------------------------
      C    1      [core]2S( 1.08)2p( 3.05)
      C    2      [core]2S( 1.08)2p( 2.91)
      C    3      [core]2S( 1.09)2p( 2.77)
      C    4      [core]2S( 1.09)2p( 2.98)
      C    5      [core]2S( 1.11)2p( 2.90)
      C    6      [core]2S( 1.08)2p( 2.98)
      C    7      [core]2S( 1.09)2p( 3.00)
      O    8      [core]2S( 1.75)2p( 4.58)
      C    9      [core]2S( 1.09)2p( 2.89)
      C   10      [core]2S( 1.08)2p( 3.05)
      C   11      [core]2S( 1.08)2p( 3.05)
      H   12            1S( 0.96)
      H   13            1S( 0.97)
      H   14            1S( 0.96)
      H   15            1S( 0.98)
      H   16            1S( 1.00)
      H   17            1S( 0.97)
      H   18            1S( 0.97)
      H   19            1S( 0.97)
      H   20            1S( 0.97)
      H   21            1S( 0.97)
      H   22            1S( 0.97)
      H   23            1S( 0.97)
      H   24            1S( 0.81)
      H   25            1S( 0.98)
      H   26            1S( 0.96)
      H   27            1S( 0.96)
      H   28            1S( 0.97)
      H   29            1S( 0.97)
      H   30            1S( 0.96)
      H   31            1S( 0.96)


 NATURAL BOND ORBITAL ANALYSIS:

                       Occupancies       Lewis Structure    Low   High
           Occ.    -------------------  -----------------   occ   occ
  Cycle   Thresh.   Lewis   Non-Lewis     CR  BD  3C  LP    (L)   (NL)   Dev
 =============================================================================
   1(1)    1.90    87.64540   0.35460     11  31   0   2     0      0    0.02
 -----------------------------------------------------------------------------

 Structure accepted: No low occupancy Lewis orbitals

 --------------------------------------------------------
   Core                     21.99954 ( 99.998% of  22)
   Valence Lewis            65.64586 ( 99.463% of  66)
  ==================       ============================
   Total Lewis              87.64540 ( 99.597% of  88)
  -----------------------------------------------------
   Valence non-Lewis         0.35460 (  0.403% of  88)
   Rydberg non-Lewis         0.00000 (  0.000% of  88)
  ==================       ============================
   Total non-Lewis           0.35460 (  0.403% of  88)
 --------------------------------------------------------


       (Occupancy)   Bond orbital/ Coefficients/ Hybrids
 ---------------------------------------------------------------------------------
     1. (1.99037) BD ( 1) C   1 - C   2  
                ( 50.95%)   0.7138* C   1 s( 25.74%)p 2.88( 74.26%)
                                            0.0001  0.5074  0.4894 -0.1415 -0.6950
                ( 49.05%)   0.7004* C   2 s( 24.92%)p 3.01( 75.08%)
                                            0.0000  0.4992 -0.4676  0.1560  0.7127
     2. (1.99504) BD ( 1) C   1 - H  12  
                ( 51.87%)   0.7202* C   1 s( 24.77%)p 3.04( 75.23%)
                                            0.0000  0.4977 -0.3873 -0.7378  0.2409
                ( 48.13%)   0.6937* H  12 s(100.00%)
                                            1.0000
     3. (1.99516) BD ( 1) C   1 - H  13  
                ( 51.72%)   0.7192* C   1 s( 24.81%)p 3.03( 75.19%)
                                            0.0000  0.4981  0.4930  0.2900  0.6517
                ( 48.28%)   0.6948* H  13 s(100.00%)
                                            1.0000
     4. (1.99498) BD ( 1) C   1 - H  14  
                ( 51.78%)   0.7196* C   1 s( 24.68%)p 3.05( 75.32%)
                                            0.0000  0.4968 -0.6062  0.5929 -0.1850
                ( 48.22%)   0.6944* H  14 s(100.00%)
                                            1.0000
     5. (1.98523) BD ( 1) C   2 - C   6  
                ( 49.79%)   0.7056* C   2 s( 25.34%)p 2.95( 74.66%)
                                            0.0000  0.5034  0.5815 -0.6177  0.1641
                ( 50.21%)   0.7086* C   6 s( 25.26%)p 2.96( 74.74%)
                                            0.0001  0.5026 -0.5528  0.6456 -0.1582
     6. (1.98419) BD ( 1) C   2 - C   7  
                ( 49.36%)   0.7026* C   2 s( 25.23%)p 2.96( 74.77%)
                                            0.0000  0.5023  0.4038  0.7242 -0.2454
                ( 50.64%)   0.7116* C   7 s( 25.62%)p 2.90( 74.38%)
                                            0.0001  0.5061 -0.3789 -0.7199  0.2865
     7. (1.98625) BD ( 1) C   2 - H  15  
                ( 51.14%)   0.7151* C   2 s( 24.52%)p 3.08( 75.48%)
                                            0.0000  0.4951 -0.5294 -0.2639 -0.6364
                ( 48.86%)   0.6990* H  15 s(100.00%)
                                            1.0000
     8. (1.98117) BD ( 1) C   3 - C   5  
                ( 50.71%)   0.7121* C   3 s( 26.60%)p 2.76( 73.40%)
                                            0.0000  0.5158  0.5171 -0.6297 -0.2646
                ( 49.29%)   0.7021* C   5 s( 25.16%)p 2.98( 74.84%)
                                            0.0001  0.5016 -0.5231  0.6319  0.2747
     9. (1.98820) BD ( 1) C   3 - C   7  
                ( 49.26%)   0.7018* C   3 s( 25.63%)p 2.90( 74.37%)
                                            0.0000  0.5063 -0.7910 -0.0963 -0.3298
                ( 50.74%)   0.7123* C   7 s( 25.14%)p 2.98( 74.86%)
                                            0.0000  0.5014  0.7946  0.0678  0.3355
    10. (1.98829) BD ( 1) C   3 - O   8  
                ( 41.07%)   0.6409* C   3 s( 22.28%)p 3.49( 77.72%)
                                            0.0000 -0.4720 -0.3247 -0.7706  0.2793
                ( 58.93%)   0.7677* O   8 s( 16.34%)p 5.12( 83.66%)
                                            0.0000 -0.4043  0.3887  0.7634 -0.3205
    11. (1.98855) BD ( 1) C   3 - H  16  
                ( 50.46%)   0.7103* C   3 s( 25.49%)p 2.92( 74.51%)
                                            0.0000  0.5049 -0.0386  0.0196  0.8621
                ( 49.54%)   0.7039* H  16 s(100.00%)
                                            1.0000
    12. (1.98345) BD ( 1) C   4 - C   5  
                ( 50.43%)   0.7101* C   4 s( 25.42%)p 2.93( 74.58%)
                                            0.0001  0.5042  0.4526  0.7154  0.1706
                ( 49.57%)   0.7041* C   5 s( 25.32%)p 2.95( 74.68%)
                                            0.0000  0.5032 -0.4536 -0.7274 -0.1091
    13. (1.99035) BD ( 1) C   4 - C   6  
                ( 49.90%)   0.7064* C   4 s( 25.05%)p 2.99( 74.95%)
                                            0.0000  0.5005 -0.6850 -0.0451  0.5275
                ( 50.10%)   0.7078* C   6 s( 25.14%)p 2.98( 74.86%)
                                            0.0000  0.5014  0.6862  0.0693 -0.5224
    14. (1.98899) BD ( 1) C   4 - H  17  
                ( 51.68%)   0.7189* C   4 s( 25.31%)p 2.95( 74.69%)
                                            0.0000  0.5031  0.4991 -0.6968  0.1112
                ( 48.32%)   0.6952* H  17 s(100.00%)
                                            1.0000
    15. (1.99065) BD ( 1) C   4 - H  18  
                ( 51.39%)   0.7169* C   4 s( 24.22%)p 3.13( 75.78%)
                                            0.0000  0.4922 -0.2772  0.0252 -0.8248
                ( 48.61%)   0.6972* H  18 s(100.00%)
                                            1.0000
    16. (1.98017) BD ( 1) C   5 - C   9  
                ( 50.04%)   0.7074* C   5 s( 24.97%)p 3.00( 75.03%)
                                            0.0001  0.4997  0.6259 -0.1323  0.5839
                ( 49.96%)   0.7068* C   9 s( 25.31%)p 2.95( 74.69%)
                                            0.0001  0.5031 -0.6387  0.1427 -0.5645
    17. (1.98450) BD ( 1) C   5 - H  19  
                ( 51.42%)   0.7171* C   5 s( 24.56%)p 3.07( 75.44%)
                                            0.0000  0.4955  0.3589  0.2324 -0.7561
                ( 48.58%)   0.6970* H  19 s(100.00%)
                                            1.0000
    18. (1.99067) BD ( 1) C   6 - H  20  
                ( 51.39%)   0.7168* C   6 s( 24.75%)p 3.04( 75.25%)
                                            0.0000  0.4975  0.2615  0.0391  0.8262
                ( 48.61%)   0.6972* H  20 s(100.00%)
                                            1.0000
    19. (1.99037) BD ( 1) C   6 - H  21  
                ( 51.50%)   0.7176* C   6 s( 24.85%)p 3.02( 75.15%)
                                            0.0000  0.4985 -0.3938 -0.7595 -0.1396
                ( 48.50%)   0.6965* H  21 s(100.00%)
                                            1.0000
    20. (1.98857) BD ( 1) C   7 - H  22  
                ( 51.31%)   0.7163* C   7 s( 25.09%)p 2.98( 74.91%)
                                            0.0000  0.5009 -0.4706  0.6901  0.2266
                ( 48.69%)   0.6978* H  22 s(100.00%)
                                            1.0000
    21. (1.99042) BD ( 1) C   7 - H  23  
                ( 51.67%)   0.7189* C   7 s( 24.15%)p 3.14( 75.85%)
                                            0.0000  0.4914  0.0592 -0.0313 -0.8683
                ( 48.33%)   0.6952* H  23 s(100.00%)
                                            1.0000
    22. (1.98938) BD ( 1) O   8 - H  24  
                ( 59.38%)   0.7706* O   8 s( 16.71%)p 4.98( 83.29%)
                                            0.0000 -0.4088  0.5635 -0.6400 -0.3254
                ( 40.62%)   0.6373* H  24 s(100.00%)
                                           -1.0000
    23. (1.98903) BD ( 1) C   9 - C  10  
                ( 49.25%)   0.7018* C   9 s( 25.15%)p 2.98( 74.85%)
                                            0.0000  0.5015  0.3944  0.7463  0.1895
                ( 50.75%)   0.7124* C  10 s( 25.73%)p 2.89( 74.27%)
                                            0.0001  0.5072 -0.4185 -0.7209 -0.2185
    24. (1.98919) BD ( 1) C   9 - C  11  
                ( 48.92%)   0.6994* C   9 s( 24.95%)p 3.01( 75.05%)
                                            0.0000  0.4995  0.5734 -0.5515 -0.3430
                ( 51.08%)   0.7147* C  11 s( 25.88%)p 2.86( 74.12%)
                                            0.0001  0.5087 -0.5949  0.5416  0.3066
    25. (1.98545) BD ( 1) C   9 - H  25  
                ( 50.74%)   0.7123* C   9 s( 24.59%)p 3.07( 75.41%)
                                            0.0000  0.4959 -0.3284 -0.3441  0.7265
                ( 49.26%)   0.7019* H  25 s(100.00%)
                                            1.0000
    26. (1.99563) BD ( 1) C  10 - H  26  
                ( 52.15%)   0.7221* C  10 s( 24.97%)p 3.01( 75.03%)
                                            0.0000  0.4997  0.2829  0.4033 -0.7125
                ( 47.85%)   0.6918* H  26 s(100.00%)
                                            1.0000
    27. (1.99502) BD ( 1) C  10 - H  27  
                ( 51.88%)   0.7203* C  10 s( 24.74%)p 3.04( 75.26%)
                                            0.0000  0.4974 -0.5333  0.5275  0.4357
                ( 48.12%)   0.6937* H  27 s(100.00%)
                                            1.0000
    28. (1.99424) BD ( 1) C  10 - H  28  
                ( 51.66%)   0.7188* C  10 s( 24.56%)p 3.07( 75.44%)
                                            0.0000  0.4956  0.6785 -0.1982  0.5047
                ( 48.34%)   0.6953* H  28 s(100.00%)
                                            1.0000
    29. (1.99404) BD ( 1) C  11 - H  29  
                ( 51.74%)   0.7193* C  11 s( 24.73%)p 3.04( 75.27%)
                                            0.0000  0.4973 -0.3468 -0.7882 -0.1056
                ( 48.26%)   0.6947* H  29 s(100.00%)
                                            1.0000
    30. (1.99428) BD ( 1) C  11 - H  30  
                ( 51.82%)   0.7199* C  11 s( 24.59%)p 3.07( 75.41%)
                                            0.0000  0.4959  0.6630 -0.0536  0.5583
                ( 48.18%)   0.6941* H  30 s(100.00%)
                                            1.0000
    31. (1.99551) BD ( 1) C  11 - H  31  
                ( 51.85%)   0.7201* C  11 s( 24.80%)p 3.03( 75.20%)
                                            0.0000  0.4980  0.2938  0.2873 -0.7637
                ( 48.15%)   0.6939* H  31 s(100.00%)
                                            1.0000
    32. (1.99997) CR ( 1) C   1           s(100.00%)
                                            1.0000  0.0000  0.0000  0.0000  0.0001
    33. (1.99997) CR ( 1) C   2           s(100.00%)
                                            1.0000  0.0000  0.0000  0.0000  0.0000
    34. (1.99989) CR ( 1) C   3           s(100.00%)
                                            1.0000  0.0000  0.0000  0.0000  0.0000
    35. (1.99995) CR ( 1) C   4           s(100.00%)
                                            1.0000  0.0000  0.0000  0.0000 -0.0001
    36. (1.99995) CR ( 1) C   5           s(100.00%)
                                            1.0000 -0.0001  0.0000  0.0000 -0.0001
    37. (1.99996) CR ( 1) C   6           s(100.00%)
                                            1.0000  0.0000  0.0000 -0.0001  0.0000
    38. (1.99996) CR ( 1) C   7           s(100.00%)
                                            1.0000  0.0000  0.0000  0.0001  0.0000
    39. (1.99999) CR ( 1) O   8           s(100.00%)
                                            1.0000  0.0000  0.0000  0.0000  0.0000
    40. (1.99996) CR ( 1) C   9           s(100.00%)
                                            1.0000  0.0000  0.0001  0.0000  0.0000
    41. (1.99997) CR ( 1) C  10           s(100.00%)
                                            1.0000  0.0000  0.0001  0.0001  0.0000
    42. (1.99997) CR ( 1) C  11           s(100.00%)
                                            1.0000  0.0000  0.0001  0.0000  0.0000
    43. (1.99308) LP ( 1) O   8           s( 66.88%)p 0.50( 33.12%)
                                            0.0000  0.8178  0.4570  0.0555 -0.3453
    44. (1.97545) LP ( 2) O   8           s(  0.06%)p99.99( 99.94%)
                                            0.0000  0.0242  0.5680  0.0678  0.8199
    45. (0.00974) BD*( 1) C   1 - C   2  
                ( 49.05%)   0.7004* C   1 s( 25.74%)p 2.88( 74.26%)
                                           -0.0001 -0.5074 -0.4894  0.1415  0.6950
                ( 50.95%)  -0.7138* C   2 s( 24.92%)p 3.01( 75.08%)
                                            0.0000 -0.4992  0.4676 -0.1560 -0.7127
    46. (0.00507) BD*( 1) C   1 - H  12  
                ( 48.13%)   0.6937* C   1 s( 24.77%)p 3.04( 75.23%)
                                            0.0000 -0.4977  0.3873  0.7378 -0.2409
                ( 51.87%)  -0.7202* H  12 s(100.00%)
                                           -1.0000
    47. (0.00598) BD*( 1) C   1 - H  13  
                ( 48.28%)   0.6948* C   1 s( 24.81%)p 3.03( 75.19%)
                                            0.0000 -0.4981 -0.4930 -0.2900 -0.6517
                ( 51.72%)  -0.7192* H  13 s(100.00%)
                                           -1.0000
    48. (0.00518) BD*( 1) C   1 - H  14  
                ( 48.22%)   0.6944* C   1 s( 24.68%)p 3.05( 75.32%)
                                            0.0000 -0.4968  0.6062 -0.5929  0.1850
                ( 51.78%)  -0.7196* H  14 s(100.00%)
                                           -1.0000
    49. (0.01613) BD*( 1) C   2 - C   6  
                ( 50.21%)   0.7086* C   2 s( 25.34%)p 2.95( 74.66%)
                                            0.0000  0.5034  0.5815 -0.6177  0.1641
                ( 49.79%)  -0.7056* C   6 s( 25.26%)p 2.96( 74.74%)
                                            0.0001  0.5026 -0.5528  0.6456 -0.1582
    50. (0.01634) BD*( 1) C   2 - C   7  
                ( 50.64%)   0.7116* C   2 s( 25.23%)p 2.96( 74.77%)
                                            0.0000  0.5023  0.4038  0.7242 -0.2454
                ( 49.36%)  -0.7026* C   7 s( 25.62%)p 2.90( 74.38%)
                                            0.0001  0.5061 -0.3789 -0.7199  0.2865
    51. (0.01008) BD*( 1) C   2 - H  15  
                ( 48.86%)   0.6990* C   2 s( 24.52%)p 3.08( 75.48%)
                                            0.0000 -0.4951  0.5294  0.2639  0.6364
                ( 51.14%)  -0.7151* H  15 s(100.00%)
                                           -1.0000
    52. (0.02699) BD*( 1) C   3 - C   5  
                ( 49.29%)   0.7021* C   3 s( 26.60%)p 2.76( 73.40%)
                                            0.0000 -0.5158 -0.5171  0.6297  0.2646
                ( 50.71%)  -0.7121* C   5 s( 25.16%)p 2.98( 74.84%)
                                           -0.0001 -0.5016  0.5231 -0.6319 -0.2747
    53. (0.02631) BD*( 1) C   3 - C   7  
                ( 50.74%)   0.7123* C   3 s( 25.63%)p 2.90( 74.37%)
                                            0.0000  0.5063 -0.7910 -0.0963 -0.3298
                ( 49.26%)  -0.7018* C   7 s( 25.14%)p 2.98( 74.86%)
                                            0.0000  0.5014  0.7946  0.0678  0.3355
    54. (0.02078) BD*( 1) C   3 - O   8  
                ( 58.93%)   0.7677* C   3 s( 22.28%)p 3.49( 77.72%)
                                            0.0000 -0.4720 -0.3247 -0.7706  0.2793
                ( 41.07%)  -0.6409* O   8 s( 16.34%)p 5.12( 83.66%)
                                            0.0000 -0.4043  0.3887  0.7634 -0.3205
    55. (0.02397) BD*( 1) C   3 - H  16  
                ( 49.54%)   0.7039* C   3 s( 25.49%)p 2.92( 74.51%)
                                            0.0000 -0.5049  0.0386 -0.0196 -0.8621
                ( 50.46%)  -0.7103* H  16 s(100.00%)
                                           -1.0000
    56. (0.01585) BD*( 1) C   4 - C   5  
                ( 49.57%)   0.7041* C   4 s( 25.42%)p 2.93( 74.58%)
                                           -0.0001 -0.5042 -0.4526 -0.7154 -0.1706
                ( 50.43%)  -0.7101* C   5 s( 25.32%)p 2.95( 74.68%)
                                            0.0000 -0.5032  0.4536  0.7274  0.1091
    57. (0.01079) BD*( 1) C   4 - C   6  
                ( 50.10%)   0.7078* C   4 s( 25.05%)p 2.99( 74.95%)
                                            0.0000  0.5005 -0.6850 -0.0451  0.5275
                ( 49.90%)  -0.7064* C   6 s( 25.14%)p 2.98( 74.86%)
                                            0.0000  0.5014  0.6862  0.0693 -0.5224
    58. (0.01032) BD*( 1) C   4 - H  17  
                ( 48.32%)   0.6952* C   4 s( 25.31%)p 2.95( 74.69%)
                                            0.0000 -0.5031 -0.4991  0.6968 -0.1112
                ( 51.68%)  -0.7189* H  17 s(100.00%)
                                           -1.0000
    59. (0.00832) BD*( 1) C   4 - H  18  
                ( 48.61%)   0.6972* C   4 s( 24.22%)p 3.13( 75.78%)
                                            0.0000 -0.4922  0.2772 -0.0252  0.8248
                ( 51.39%)  -0.7169* H  18 s(100.00%)
                                           -1.0000
    60. (0.02169) BD*( 1) C   5 - C   9  
                ( 49.96%)   0.7068* C   5 s( 24.97%)p 3.00( 75.03%)
                                           -0.0001 -0.4997 -0.6259  0.1323 -0.5839
                ( 50.04%)  -0.7074* C   9 s( 25.31%)p 2.95( 74.69%)
                                           -0.0001 -0.5031  0.6387 -0.1427  0.5645
    61. (0.01113) BD*( 1) C   5 - H  19  
                ( 48.58%)   0.6970* C   5 s( 24.56%)p 3.07( 75.44%)
                                            0.0000 -0.4955 -0.3589 -0.2324  0.7561
                ( 51.42%)  -0.7171* H  19 s(100.00%)
                                           -1.0000
    62. (0.01041) BD*( 1) C   6 - H  20  
                ( 48.61%)   0.6972* C   6 s( 24.75%)p 3.04( 75.25%)
                                            0.0000 -0.4975 -0.2615 -0.0391 -0.8262
                ( 51.39%)  -0.7168* H  20 s(100.00%)
                                           -1.0000
    63. (0.00751) BD*( 1) C   6 - H  21  
                ( 48.50%)   0.6965* C   6 s( 24.85%)p 3.02( 75.15%)
                                            0.0000 -0.4985  0.3938  0.7595  0.1396
                ( 51.50%)  -0.7176* H  21 s(100.00%)
                                           -1.0000
    64. (0.00985) BD*( 1) C   7 - H  22  
                ( 48.69%)   0.6978* C   7 s( 25.09%)p 2.98( 74.91%)
                                            0.0000 -0.5009  0.4706 -0.6901 -0.2266
                ( 51.31%)  -0.7163* H  22 s(100.00%)
                                           -1.0000
    65. (0.00849) BD*( 1) C   7 - H  23  
                ( 48.33%)   0.6952* C   7 s( 24.15%)p 3.14( 75.85%)
                                            0.0000 -0.4914 -0.0592  0.0313  0.8683
                ( 51.67%)  -0.7189* H  23 s(100.00%)
                                           -1.0000
    66. (0.00752) BD*( 1) O   8 - H  24  
                ( 40.62%)   0.6373* O   8 s( 16.71%)p 4.98( 83.29%)
                                            0.0000  0.4088 -0.5635  0.6400  0.3254
                ( 59.38%)  -0.7706* H  24 s(100.00%)
                                            1.0000
    67. (0.01004) BD*( 1) C   9 - C  10  
                ( 50.75%)   0.7124* C   9 s( 25.15%)p 2.98( 74.85%)
                                            0.0000  0.5015  0.3944  0.7463  0.1895
                ( 49.25%)  -0.7018* C  10 s( 25.73%)p 2.89( 74.27%)
                                            0.0001  0.5072 -0.4185 -0.7209 -0.2185
    68. (0.01006) BD*( 1) C   9 - C  11  
                ( 51.08%)   0.7147* C   9 s( 24.95%)p 3.01( 75.05%)
                                            0.0000  0.4995  0.5734 -0.5515 -0.3430
                ( 48.92%)  -0.6994* C  11 s( 25.88%)p 2.86( 74.12%)
                                            0.0001  0.5087 -0.5949  0.5416  0.3066
    69. (0.01173) BD*( 1) C   9 - H  25  
                ( 49.26%)   0.7019* C   9 s( 24.59%)p 3.07( 75.41%)
                                            0.0000 -0.4959  0.3284  0.3441 -0.7265
                ( 50.74%)  -0.7123* H  25 s(100.00%)
                                           -1.0000
    70. (0.00566) BD*( 1) C  10 - H  26  
                ( 47.85%)   0.6918* C  10 s( 24.97%)p 3.01( 75.03%)
                                            0.0000 -0.4997 -0.2829 -0.4033  0.7125
                ( 52.15%)  -0.7221* H  26 s(100.00%)
                                           -1.0000
    71. (0.00588) BD*( 1) C  10 - H  27  
                ( 48.12%)   0.6937* C  10 s( 24.74%)p 3.04( 75.26%)
                                            0.0000 -0.4974  0.5333 -0.5275 -0.4357
                ( 51.88%)  -0.7203* H  27 s(100.00%)
                                           -1.0000
    72. (0.00529) BD*( 1) C  10 - H  28  
                ( 48.34%)   0.6953* C  10 s( 24.56%)p 3.07( 75.44%)
                                            0.0000 -0.4956 -0.6785  0.1982 -0.5047
[...]
                         Standard Origin              Atomic Origin
 NLMO      Total    Paramagnetic  Diamagnetic   Paramagnetic  Diamagnetic
   10       0.1120       -0.2220       0.3340        -0.9464       1.0585
   11      -0.2134       -0.5444       0.3310        -1.1438       0.9304
   14      -0.1996       -0.6161       0.4165        -1.0881       0.8885
   16       4.9736       -9.5385      14.5121        -2.8090       7.7826
   17       0.4161       -0.0438       0.4599        -0.6534       1.0695
   23      -1.2558       -5.8090       4.5532        -8.9038       7.6481
   24      -2.7253       -4.9691       2.2438       -10.2085       7.4832
   25       6.5219       -4.8081      11.3299        -4.3065      10.8284
   26       0.8561       -0.4040       1.2602        -0.2238       1.0800
   27       0.7109       -0.5700       1.2810        -0.2900       1.0009
   29       0.8208       -0.4602       1.2810        -0.1432       0.9641
   30       0.6700       -0.3334       1.0034        -0.3223       0.9922
   31       0.9842       -0.4236       1.4079        -0.0751       1.0593
   40     199.9178       -0.0002     199.9180         0.0007     199.9171
 Sum      211.5895      -28.7424     240.3320       -31.1133     242.7028

 Contributions to Isotropic shielding for atom   10 (   221.1693 ppm):
                         Standard Origin              Atomic Origin
 NLMO      Total    Paramagnetic  Diamagnetic   Paramagnetic  Diamagnetic
    8      -0.0966        0.0403      -0.1369        -1.0515       0.9549
   10       0.0800       -0.2225       0.3024        -1.1832       1.2632
   23       4.2964      -10.2959      14.5923        -3.5756       7.8721
   24      -0.4953        0.1426      -0.6380        -1.2508       0.7555
   25       0.3205       -0.2260       0.5464        -0.7149       1.0353
   26       5.9703       -2.8849       8.8552        -5.2911      11.2614
   27       6.3119       -5.8848      12.1967        -4.8215      11.1333
   28       4.7581        1.8141       2.9440        -6.2865      11.0446
   30      -0.2444       -1.0187       0.7743        -1.2078       0.9633
   41     200.0728       -0.0034     200.0762         0.0021     200.0707
 Sum      220.9735      -18.5391     239.5126       -25.3808     246.3543

 Contributions to Isotropic shielding for atom   11 (   221.1220 ppm):
                         Standard Origin              Atomic Origin
 NLMO      Total    Paramagnetic  Diamagnetic   Paramagnetic  Diamagnetic
   23      -0.5554        0.2452      -0.8006        -1.3293       0.7739
   24       4.9776      -11.6212      16.5987        -3.0672       8.0448
   25       0.2944       -0.1054       0.3998        -0.7149       1.0093
   28      -0.2114       -0.7139       0.5025        -1.1682       0.9568
   29       6.0587       -3.7403       9.7990        -5.0217      11.0804
   30       4.7501        1.7931       2.9570        -6.3530      11.1031
   31       5.5625       -2.8510       8.4135        -5.5785      11.1411
   42     200.0745       -0.0043     200.0788         0.0025     200.0721
 Sum      220.9510      -16.9978     237.9488       -23.2304     244.1815

 Contributions to Isotropic shielding for atom   12 (    32.4650 ppm):
                         Standard Origin              Atomic Origin
 NLMO      Total    Paramagnetic  Diamagnetic   Paramagnetic  Diamagnetic
    1       1.3316       -0.0350       1.3666         0.3346       0.9971
    2      26.3341        0.1225      26.2116         0.4407      25.8934
    3       2.0407        0.8732       1.1675         0.2094       1.8314
    4       1.8272        2.4201      -0.5929        -0.0033       1.8305
    5      -0.1146        0.5025      -0.6171        -1.0877       0.9731
 Sum       31.4190        3.8833      27.5358        -0.1064      31.5254

 Contributions to Isotropic shielding for atom   13 (    32.7296 ppm):
                         Standard Origin              Atomic Origin
 NLMO      Total    Paramagnetic  Diamagnetic   Paramagnetic  Diamagnetic
    1       1.7201       -1.4547       3.1748         0.8333       0.8868
    2       1.9706        1.2754       0.6952         0.1467       1.8239
    3      26.3565        0.3888      25.9677         0.3852      25.9713
    4       1.9345        1.2791       0.6554         0.1164       1.8181
   18      -0.2253       -0.0946      -0.1308        -1.0078       0.7825
 Sum       31.7564        1.3940      30.3624         0.4737      31.2827

 Contributions to Isotropic shielding for atom   14 (    32.5976 ppm):
                         Standard Origin              Atomic Origin
 NLMO      Total    Paramagnetic  Diamagnetic   Paramagnetic  Diamagnetic
    1       1.3244        0.0014       1.3230         0.3446       0.9797
    2       1.9151        2.4863      -0.5712         0.0671       1.8480
    3       2.0140        0.8916       1.1224         0.1740       1.8400
    4      26.4153        0.1356      26.2797         0.4672      25.9481
    6      -0.1235        0.4715      -0.5950        -1.0041       0.8806
   20      -0.2126       -0.1789      -0.0337        -1.0098       0.7972
 Sum       31.3327        3.8075      27.5252        -0.9609      32.2936

 Contributions to Isotropic shielding for atom   15 (    32.3685 ppm):
                         Standard Origin              Atomic Origin
 NLMO      Total    Paramagnetic  Diamagnetic   Paramagnetic  Diamagnetic
    1       0.7687        2.4653      -1.6966        -0.2205       0.9892
    5       1.3447        0.9493       0.3954         0.3983       0.9464
    6       1.2556        0.9184       0.3372         0.2532       1.0024
    7      26.5044       -0.2904      26.7948         0.4754      26.0290
   19       0.0019       -0.0461       0.0480        -1.0755       1.0774
   21      -0.0728       -0.0350      -0.0378        -1.2139       1.1411
 Sum       29.8025        3.9616      25.8409        -1.3831      31.1856

 Contributions to Isotropic shielding for atom   16 (    32.1722 ppm):
                         Standard Origin              Atomic Origin
 NLMO      Total    Paramagnetic  Diamagnetic   Paramagnetic  Diamagnetic
    3      -0.2249       -1.0858       0.8609        -0.7755       0.5506
    8       1.1329       -0.2124       1.3453         0.0747       1.0581
   10       0.7061        0.7641      -0.0580        -0.8304       1.5365
   11      26.7202        0.4172      26.3030         0.6729      26.0473
   16      -0.0928       -0.3530       0.2602        -1.1587       1.0659
   22       0.3184       -0.8865       1.2049        -0.6521       0.9705
   27      -0.3265       -1.3079       0.9814        -0.8814       0.5549
 Sum       28.2334       -2.6643      30.8977        -3.5505      31.7839

 Contributions to Isotropic shielding for atom   17 (    32.4318 ppm):
                         Standard Origin              Atomic Origin
 NLMO      Total    Paramagnetic  Diamagnetic   Paramagnetic  Diamagnetic
   12       1.3812        0.3646       1.0167         0.5162       0.8650
   13       1.0417        1.1199      -0.0782         0.0223       1.0194
   14      26.3840        0.0428      26.3411         0.4806      25.9034
   15       2.0486        1.6266       0.4220         0.2493       1.7993
   16      -0.1409        0.0214      -0.1623        -1.2317       1.0908
   19       0.1744       -0.2490       0.4233        -0.8370       1.0113
   24      -0.0220       -0.5491       0.5271        -1.1104       1.0884
   29      -0.4563       -1.9490       1.4927        -0.9468       0.4905
 Sum       30.4106        0.4283      29.9823        -2.8573      33.2680

 Contributions to Isotropic shielding for atom   18 (    32.3849 ppm):
                         Standard Origin              Atomic Origin
 NLMO      Total    Paramagnetic  Diamagnetic   Paramagnetic  Diamagnetic
   12       1.4121        0.2947       1.1174         0.3782       1.0339
   13       1.0896        1.0042       0.0853         0.1536       0.9359
   14       1.9810        1.5977       0.3833         0.1579       1.8231
   15      26.4335        0.0201      26.4134         0.4155      26.0180
   17      -0.0635       -0.2206       0.1571        -1.1866       1.1231
 Sum       30.8526        2.6961      28.1566        -0.0814      30.9340

 Contributions to Isotropic shielding for atom   19 (    32.1552 ppm):
                         Standard Origin              Atomic Origin
 NLMO      Total    Paramagnetic  Diamagnetic   Paramagnetic  Diamagnetic
    8       1.2377        0.8840       0.3537         0.3059       0.9317
   10       0.1153       -0.5819       0.6972        -1.6524       1.7677
   12       1.0788        0.9543       0.1245        -0.0178       1.0966
   15      -0.0203       -0.6321       0.6117        -1.1504       1.1301
   16       0.9994        1.3762      -0.3768        -0.0815       1.0809
   17      26.2132       -0.0022      26.2154         0.4540      25.7592
   26      -0.0693       -1.0608       0.9916        -0.9434       0.8742
   31      -0.0805       -1.4415       1.3609        -0.9817       0.9012
   43      -0.4978        0.1025      -0.6004         0.5230      -1.0208
 Sum       28.9764       -0.4015      29.3779        -3.5443      32.5207

 Contributions to Isotropic shielding for atom   20 (    32.9823 ppm):
                         Standard Origin              Atomic Origin
 NLMO      Total    Paramagnetic  Diamagnetic   Paramagnetic  Diamagnetic
    1      -0.0929       -0.6744       0.5815        -1.1835       1.0906
    3      -0.0298       -1.0555       1.0258        -0.9756       0.9458
    5       1.3340        0.5296       0.8045         0.5631       0.7709
   13       1.3831       -0.2267       1.6098         0.4507       0.9324
   18      26.4136        0.2478      26.1658         0.4046      26.0091
   19       1.9691        1.6965       0.2726         0.1948       1.7744
 Sum       30.9772        0.5173      30.4600        -0.5459      31.5231

 Contributions to Isotropic shielding for atom   21 (    32.3996 ppm):
                         Standard Origin              Atomic Origin
 NLMO      Total    Paramagnetic  Diamagnetic   Paramagnetic  Diamagnetic
    2      -0.0699       -1.0405       0.9706        -0.9195       0.8496
    5       0.9492        1.4559      -0.5067        -0.0104       0.9596
    7       0.0389       -0.2956       0.3345        -1.0046       1.0434
   13       1.1719        0.9400       0.2319         0.2034       0.9685
   14       0.1711        0.0898       0.0813        -0.8557       1.0268
   18       2.0975        1.2620       0.8355         0.3278       1.7696
   19      26.4204       -0.0813      26.5017         0.4581      25.9623
 Sum       30.7790        2.3302      28.4488        -1.8008      32.5799

 Contributions to Isotropic shielding for atom   22 (    32.9474 ppm):
                         Standard Origin              Atomic Origin
 NLMO      Total    Paramagnetic  Diamagnetic   Paramagnetic  Diamagnetic
    1      -0.1549       -0.3165       0.1616        -1.2523       1.0974
    4      -0.0583       -1.3279       1.2696        -0.9874       0.9291
    6       1.0393        1.2535      -0.2143         0.1742       0.8651
    9       1.3323        0.5065       0.8258         0.4854       0.8469
   10      -0.2237        0.3818      -0.6054        -1.4202       1.1965
   20      26.5055        0.0450      26.4605         0.4811      26.0244
   21       2.0689        1.6923       0.3766         0.2208       1.8480
 Sum       30.5092        2.2348      28.2744        -2.2983      32.8075

 Contributions to Isotropic shielding for atom   23 (    32.0539 ppm):
                         Standard Origin              Atomic Origin
 NLMO      Total    Paramagnetic  Diamagnetic   Paramagnetic  Diamagnetic
    6       1.0904        0.6882       0.4022         0.1193       0.9711
    7      -0.0159       -0.6766       0.6606        -1.1212       1.1052
    9       1.3638        0.0387       1.3251         0.4624       0.9014
   10      -0.0590        0.0469      -0.1059        -1.3275       1.2685
   20       1.8715        1.6563       0.2152         0.0054       1.8661
   21      26.2832        0.0833      26.1999         0.4156      25.8676
 Sum       30.5340        1.8369      28.6970        -1.4460      31.9799

 Contributions to Isotropic shielding for atom   24 (    35.0286 ppm):
                         Standard Origin              Atomic Origin
 NLMO      Total    Paramagnetic  Diamagnetic   Paramagnetic  Diamagnetic
    9      -0.2133        0.4356      -0.6489        -1.2444       1.0310
   10       1.4106        2.0612      -0.6506         0.7127       0.6979
   11       0.1745        0.2384      -0.0639        -0.8414       1.0159
   20      -0.0822       -0.6483       0.5662        -1.0202       0.9381
   22      23.1500       -0.4453      23.5953        -0.0696      23.2196
   43       4.0858        0.8978       3.1880         2.1568       1.9290
   44       5.5908        2.4512       3.1396         2.4191       3.1717
 Sum       34.1163        4.9905      29.1257         2.1131      32.0032

 Contributions to Isotropic shielding for atom   25 (    32.7277 ppm):
                         Standard Origin              Atomic Origin
 NLMO      Total    Paramagnetic  Diamagnetic   Paramagnetic  Diamagnetic
   16       1.6944       -0.4797       2.1741         0.7441       0.9503
   23       1.0495        1.1639      -0.1144         0.0366       1.0130
   24       0.9165        1.5638      -0.6473        -0.0588       0.9752
   25      26.5699        0.1505      26.4194         0.3727      26.1972
   27       0.2174       -0.7949       1.0123        -0.7501       0.9675
   29       0.2419       -0.8806       1.1226        -0.6957       0.9377
 Sum       30.6896        0.7229      29.9667        -0.3512      31.0408

 Contributions to Isotropic shielding for atom   26 (    32.2021 ppm):
                         Standard Origin              Atomic Origin
 NLMO      Total    Paramagnetic  Diamagnetic   Paramagnetic  Diamagnetic
   10       0.1198       -0.2681       0.3879        -0.9566       1.0765
   23       1.4140       -0.4121       1.8261         0.4702       0.9438
   26      26.1584        0.2459      25.9125         0.4228      25.7356
   27       2.0782        0.6294       1.4489         0.2780       1.8002
   28       1.8812        2.2189      -0.3376         0.0734       1.8078
 Sum       31.6517        2.4140      29.2377         0.2878      31.3639

 Contributions to Isotropic shielding for atom   27 (    32.2082 ppm):
                         Standard Origin              Atomic Origin
 NLMO      Total    Paramagnetic  Diamagnetic   Paramagnetic  Diamagnetic
    8      -0.0912        0.0238      -0.1150        -1.1111       1.0199
   10       0.0291       -0.1687       0.1978        -1.3332       1.3623
   23       1.5505       -1.0659       2.6164         0.5601       0.9904
   26       2.0623        0.7600       1.3023         0.2151       1.8472
   27      26.3056        0.3113      25.9943         0.3884      25.9172
   28       1.8520        1.6340       0.2180        -0.0384       1.8904
 Sum       31.7082        1.4944      30.2138        -1.3192      33.0274

 Contributions to Isotropic shielding for atom   28 (    32.5311 ppm):
                         Standard Origin              Atomic Origin
 NLMO      Total    Paramagnetic  Diamagnetic   Paramagnetic  Diamagnetic
   23       1.2315        0.4626       0.7689         0.2584       0.9731
   24      -0.2063        0.6161      -0.8223        -1.2904       1.0842
   26       1.9724        1.9933      -0.0209         0.1042       1.8682
   27       2.0059        1.3998       0.6060         0.1198       1.8861
   28      26.4487        0.0108      26.4379         0.4473      26.0014
   30      -0.1516       -1.2181       1.0666        -1.0203       0.8688
 Sum       31.3006        3.2645      28.0361        -1.3811      32.6818

 Contributions to Isotropic shielding for atom   29 (    32.3497 ppm):
                         Standard Origin              Atomic Origin
 NLMO      Total    Paramagnetic  Diamagnetic   Paramagnetic  Diamagnetic
   12      -0.0978        0.1886      -0.2864        -1.1320       1.0342
   24       1.5437       -1.1100       2.6537         0.5450       0.9987
   29      26.4045        0.2227      26.1818         0.3978      26.0067
   30       1.8350        1.9475      -0.1125        -0.0691       1.9041
   31       1.9887        1.0729       0.9158         0.1421       1.8466
 Sum       31.6742        2.3217      29.3524        -0.1161      31.7903

 Contributions to Isotropic shielding for atom   30 (    32.4757 ppm):
                         Standard Origin              Atomic Origin
 NLMO      Total    Paramagnetic  Diamagnetic   Paramagnetic  Diamagnetic
   23      -0.2266        0.8177      -1.0443        -1.3174       1.0908
   24       1.3560        0.0713       1.2847         0.3440       1.0120
   28      -0.1510       -0.8270       0.6760        -1.0210       0.8699
   29       1.9568        1.7706       0.1863         0.0734       1.8835
   30      26.3636        0.0098      26.3539         0.4515      25.9121
   31       1.9166        1.9889      -0.0724         0.0670       1.8496
 Sum       31.2155        3.8313      27.3842        -1.4024      32.6178

 Contributions to Isotropic shielding for atom   31 (    32.5407 ppm):
                         Standard Origin              Atomic Origin
 NLMO      Total    Paramagnetic  Diamagnetic   Paramagnetic  Diamagnetic
   24       1.5589       -0.7460       2.3049         0.5941       0.9648
   29       2.0203        1.0778       0.9425         0.2139       1.8064
   30       1.8953        2.2662      -0.3709         0.0832       1.8121
   31      26.3307        0.2460      26.0847         0.4334      25.8973
 Sum       31.8053        2.8440      28.9612         1.3247      30.4806
 
 1\1\GINC-COMPUTE-9-5\SP\RHF\STO-3G\C10H20O1\YTSAI.IQUIR\03-Aug-2021\0\
 \# rhf/STO-3G nmr pop=nbo\\comment\\0,1\C,0,-2.141898891,0.520963207,-
 2.516048029\C,0,-2.115958039,0.23575027,-1.013926302\C,0,-0.044664368,
 -1.110207503,-0.407660636\C,0,-0.788165516,0.847521283,1.05032943\C,0,
 0.275594963,-0.261172099,0.851945572\C,0,-1.354221095,1.346960538,-0.2
 74988369\C,0,-1.541629906,-1.156600453,-0.714684007\O,0,0.413537948,-2
 .445068146,-0.19560533\C,0,1.731984375,0.313627535,0.824274519\C,0,2.7
 91859881,-0.744602866,0.487127328\C,0,2.123279119,0.955885586,2.164784
 922\H,0,-2.572716553,1.507812169,-2.715878356\H,0,-1.134496611,0.49629
 73,-2.944950975\H,0,-2.751147278,-0.221789005,-3.041840883\H,0,-3.1576
 80287,0.240454652,-0.666279629\H,0,0.486182863,-0.711137354,-1.2804341
 55\H,0,-0.401491919,1.697102232,1.617276728\H,0,-1.611983301,0.4411987
 2,1.652431435\H,0,0.221741063,-0.919680079,1.731199232\H,0,-0.53422194
 3,1.735851721,-0.891908324\H,0,-2.032368794,2.189892567,-0.095090531\H
 ,0,-1.744102906,-1.852825493,-1.538171679\H,0,-2.063261495,-1.58764390
 7,0.151199054\H,0,0.242378375,-2.947122651,-1.010558914\H,0,1.78527387
 1,1.091120218,0.051174139\H,0,2.741063499,-1.590827608,1.180458666\H,0
 ,2.675952996,-1.122488801,-0.5327812\H,0,3.800236046,-0.320230081,0.54
 9461584\H,0,1.521402664,1.838896468,2.392167165\H,0,3.167558627,1.2876
 49576,2.146899678\H,0,2.011962613,0.244412004,2.990077866\\Version=EM6
 4L-G09RevC.01\State=1-A\HF=-459.611753\RMSD=5.537e-09\Dipole=-0.274907
 9,0.2180319,-0.400516\Quadrupole=-0.2214435,-0.709475,0.9309185,1.1603
 312,-0.4558833,2.2198465\PG=C01 [X(C10H20O1)]\\@


 LAW OF COMPENSATION:
      NO CALCULATION IS EVER A COMPLETE FAILURE; IT 
      CAN ALWAYS SERVE AS A BAD EXAMPLE.

                                           -- ANON
 Job cpu time:  0 days  0 hours  0 minutes 24.2 seconds.
 File lengths (MBytes):  RWF=      5 Int=      0 D2E=      0 Chk=      1 Scr=      1
 Normal termination of Gaussian 09 at Tue Aug  3 16:36:55 2021.
