 Entering Gaussian System, Link 0=g09
 Input=/home/ytsai.iquir/menthol/03_menthol_M0064_MMFF_NMR_rhf_STO-3G_nbo.gjc
 Output=/home/ytsai.iquir/menthol/03_menthol_M0064_MMFF_NMR_rhf_STO-3G_nbo.log
 Initial command:
 /share/apps/Gaussian09/EM64T.SSE4.2-enabled/g09/l1.exe /tmp/Gau-30269.inp -scrdir=/tmp/
 Entering Link 1 = /share/apps/Gaussian09/EM64T.SSE4.2-enabled/g09/l1.exe PID=     30270.
  
 Copyright (c) 1988,1990,1992,1993,1995,1998,2003,2009,2011,
            Gaussian, Inc.  All Rights Reserved.
  
 This is part of the Gaussian(R) 09 program.  It is based on
 the Gaussian(R) 03 system (copyright 2003, Gaussian, Inc.),
 the Gaussian(R) 98 system (copyright 1998, Gaussian, Inc.),
 the Gaussian(R) 94 system (copyright 1995, Gaussian, Inc.),
 the Gaussian 92(TM) system (copyright 1992, Gaussian, Inc.),
 the Gaussian 90(TM) system (copyright 1990, Gaussian, Inc.),
 the Gaussian 88(TM) system (copyright 1988, Gaussian, Inc.),
 the Gaussian 86(TM) system (copyright 1986, Carnegie Mellon
 University), and the Gaussian 82(TM) system (copyright 1983,
 Carnegie Mellon University). Gaussian is a federally registered
 trademark of Gaussian, Inc.
  
 This software contains proprietary and confidential information,
 including trade secrets, belonging to Gaussian, Inc.
  
 This software is provided under written license and may be
 used, copied, transmitted, or stored only in accord with that
 written license.
  
 The following legend is applicable only to US Government
 contracts under FAR:
  
                    RESTRICTED RIGHTS LEGEND
  
 Use, reproduction and disclosure by the US Government is
 subject to restrictions as set forth in subparagraphs (a)
 and (c) of the Commercial Computer Software - Restricted
 Rights clause in FAR 52.227-19.
  
 Gaussian, Inc.
 340 Quinnipiac St., Bldg. 40, Wallingford CT 06492
  
  
 ---------------------------------------------------------------
 Warning -- This program may not be used in any manner that
 competes with the business of Gaussian, Inc. or will provide
 assistance to any competitor of Gaussian, Inc.  The licensee
 of this program is prohibited from giving any competitor of
 Gaussian, Inc. access to this program.  By using this program,
 the user acknowledges that Gaussian, Inc. is engaged in the
 business of creating and licensing software in the field of
 computational chemistry and represents and warrants to the
 licensee that it is not a competitor of Gaussian, Inc. and that
 it will not use this program in any manner prohibited above.
 ---------------------------------------------------------------
  

 Cite this work as:
 Gaussian 09, Revision C.01,
 M. J. Frisch, G. W. Trucks, H. B. Schlegel, G. E. Scuseria, 
 M. A. Robb, J. R. Cheeseman, G. Scalmani, V. Barone, B. Mennucci, 
 G. A. Petersson, H. Nakatsuji, M. Caricato, X. Li, H. P. Hratchian, 
 A. F. Izmaylov, J. Bloino, G. Zheng, J. L. Sonnenberg, M. Hada, 
 M. Ehara, K. Toyota, R. Fukuda, J. Hasegawa, M. Ishida, T. Nakajima, 
 Y. Honda, O. Kitao, H. Nakai, T. Vreven, J. A. Montgomery, Jr., 
 J. E. Peralta, F. Ogliaro, M. Bearpark, J. J. Heyd, E. Brothers, 
 K. N. Kudin, V. N. Staroverov, T. Keith, R. Kobayashi, J. Normand, 
 K. Raghavachari, A. Rendell, J. C. Burant, S. S. Iyengar, J. Tomasi, 
 M. Cossi, N. Rega, J. M. Millam, M. Klene, J. E. Knox, J. B. Cross, 
 V. Bakken, C. Adamo, J. Jaramillo, R. Gomperts, R. E. Stratmann, 
 O. Yazyev, A. J. Austin, R. Cammi, C. Pomelli, J. W. Ochterski, 
 R. L. Martin, K. Morokuma, V. G. Zakrzewski, G. A. Voth, 
 P. Salvador, J. J. Dannenberg, S. Dapprich, A. D. Daniels, 
 O. Farkas, J. B. Foresman, J. V. Ortiz, J. Cioslowski, 
 and D. J. Fox, Gaussian, Inc., Wallingford CT, 2010.
 
 ******************************************
 Gaussian 09:  EM64L-G09RevC.01 23-Sep-2011
                 3-Aug-2021 
 ******************************************
 %nprocshared=4
 Will use up to    4 processors via shared memory.
 ------------------------
 # rhf/STO-3G nmr pop=nbo
 ------------------------
 1/38=1/1;
 2/12=2,17=6,18=5,40=1/2;
 3/6=3,11=1,16=1,25=1,30=1,116=1/1,2,8,3;
 4//1;
 5/5=2,38=5/2;
 8/6=1,10=90,11=11/1;
 10/13=100,45=16/2;
 6/7=2,8=2,9=2,10=2,28=1,64=1/1,7;
 99/9=1/99;
 -------
 comment
 -------
 Charge =  0 Multiplicity = 1
 Symbolic Z-Matrix:
 6                     0.26515   0.94864  -3.53172 
 6                    -0.16146   0.52889  -2.12659 
 6                     0.31215  -1.02551  -0.17761 
 6                    -0.05618   1.43999   0.27204 
 6                    -0.49848   0.0145    0.63396 
 6                    -0.29766   1.7548   -1.20799 
 6                     0.81225  -0.49341  -1.53058 
 8                    -0.5325   -2.15503  -0.41583 
 6                    -0.4867   -0.22065   2.17414 
 6                     0.88268  -0.02447   2.83259 
 6                    -1.0488   -1.59337   2.55584 
 1                    -0.44355   1.66941  -3.95298 
 1                     1.25793   1.41122  -3.52513 
 1                     0.30087   0.08273  -4.20114 
 1                    -1.14741   0.05208  -2.21216 
 1                     1.17454  -1.39028   0.3884 
 1                     1.01339   1.56306   0.48273 
 1                    -0.58358   2.17997   0.88555 
 1                    -1.55382  -0.07672   0.33379 
 1                     0.39586   2.55043  -1.50784 
 1                    -1.30572   2.17071  -1.33185 
 1                     1.78975  -0.01403  -1.38937 
 1                     0.95947  -1.32257  -2.23316 
 1                     0.00255  -2.83307  -0.86244 
 1                    -1.16029   0.52741   2.61514 
 1                     1.62498  -0.73493   2.45782 
 1                     1.26428   0.98785   2.67152 
 1                     0.80856  -0.16899   3.9164 
 1                    -0.38016  -2.40508   2.25222 
 1                    -2.0273   -1.75846   2.09315 
 1                    -1.18081  -1.6651    3.64111 
 
                          Input orientation:                          
 ---------------------------------------------------------------------
 Center     Atomic      Atomic             Coordinates (Angstroms)
 Number     Number       Type             X           Y           Z
 ---------------------------------------------------------------------
      1          6           0        0.265147    0.948635   -3.531719
      2          6           0       -0.161457    0.528894   -2.126595
      3          6           0        0.312150   -1.025515   -0.177614
      4          6           0       -0.056180    1.439985    0.272044
      5          6           0       -0.498483    0.014505    0.633956
      6          6           0       -0.297658    1.754803   -1.207994
      7          6           0        0.812254   -0.493410   -1.530583
      8          8           0       -0.532499   -2.155028   -0.415829
      9          6           0       -0.486701   -0.220650    2.174138
     10          6           0        0.882679   -0.024473    2.832586
     11          6           0       -1.048799   -1.593374    2.555843
     12          1           0       -0.443548    1.669405   -3.952983
     13          1           0        1.257935    1.411221   -3.525129
     14          1           0        0.300866    0.082726   -4.201139
     15          1           0       -1.147411    0.052075   -2.212159
     16          1           0        1.174541   -1.390281    0.388396
     17          1           0        1.013393    1.563060    0.482729
     18          1           0       -0.583579    2.179971    0.885550
     19          1           0       -1.553824   -0.076721    0.333794
     20          1           0        0.395862    2.550433   -1.507840
     21          1           0       -1.305717    2.170713   -1.331847
     22          1           0        1.789747   -0.014031   -1.389365
     23          1           0        0.959465   -1.322574   -2.233156
     24          1           0        0.002554   -2.833073   -0.862435
     25          1           0       -1.160295    0.527413    2.615135
     26          1           0        1.624978   -0.734933    2.457823
     27          1           0        1.264283    0.987851    2.671516
     28          1           0        0.808558   -0.168988    3.916396
     29          1           0       -0.380158   -2.405083    2.252222
     30          1           0       -2.027296   -1.758455    2.093149
     31          1           0       -1.180808   -1.665101    3.641109
 ---------------------------------------------------------------------
                    Distance matrix (angstroms):
                    1          2          3          4          5
     1  C    0.000000
     2  C    1.527268   0.000000
     3  C    3.892235   2.537522   0.000000
     4  C    3.848803   2.568003   2.533091   0.000000
     5  C    4.336885   2.828219   1.548358   1.535775   0.000000
     6  C    2.523163   1.537930   3.027163   1.532297   2.541997
     7  C    2.526532   1.532465   1.537454   2.782384   2.580937
     8  O    4.469646   3.204345   1.430376   3.691093   2.410410
     9  C    5.872760   4.377660   2.610883   2.561449   1.558075
    10  C    6.467817   5.098030   3.223180   3.095557   2.596748
    11  C    6.726564   5.216955   3.105871   3.924577   2.565497
    12  H    1.095090   2.171643   4.699690   4.248945   4.876650
    13  H    1.095288   2.179236   4.247122   4.018240   4.725866
    14  H    1.095079   2.171760   4.173378   4.688176   4.901199
    15  H    2.130816   1.098536   2.725966   3.047678   2.919398
    16  H    4.654549   3.434138   1.094139   3.088466   2.198348
    17  H    4.129550   3.042753   2.761977   1.097052   2.169484
    18  H    4.663559   3.460818   3.493965   1.096411   2.181693
    19  H    4.393427   2.891188   2.154903   2.132404   1.100983
    20  H    2.584362   2.186340   3.816270   2.146025   3.437743
    21  H    2.966568   2.153260   3.763725   2.160502   3.027415
    22  H    2.800144   2.155336   2.162113   2.877828   3.054609
    23  H    2.706794   2.166969   2.175435   3.865139   3.483350
    24  H    4.636307   3.595528   1.957574   4.421484   3.255599
    25  H    6.324012   4.845790   3.518398   2.746258   2.150846
    26  H    6.368528   5.079911   2.958628   3.512007   2.897798
    27  H    6.283306   5.026455   3.616316   2.775881   2.864681
    28  H    7.551078   6.160009   4.212004   4.076502   3.537858
    29  H    6.716979   5.275423   2.878646   4.337121   2.913279
    30  H    6.650020   5.149715   3.341642   4.175134   2.758605
    31  H    7.769933   6.254526   4.149775   4.717727   3.511355
                    6          7          8          9         10
     6  C    0.000000
     7  C    2.527929   0.000000
     8  O    3.996179   2.410811   0.000000
     9  C    3.921349   3.935307   3.232931   0.000000
    10  C    4.570044   4.388862   4.134512   1.532070   0.000000
    11  C    5.093228   4.623020   3.068037   1.531673   2.503726
    12  H    2.750188   3.481785   5.210149   6.412159   7.118430
    13  H    2.811944   2.793647   5.058807   6.179677   6.528597
    14  H    3.480371   2.779446   4.475557   6.430899   7.058561
    15  H    2.151675   2.145317   2.911395   4.444156   5.438435
    16  H    3.821961   2.148980   2.036074   2.704928   2.815080
    17  H    2.148061   2.884953   4.125696   2.879717   2.838869
    18  H    2.155330   3.864326   4.526412   2.726321   3.286402
    19  H    2.703617   3.041029   2.434009   2.132213   3.490449
    20  H    1.097226   3.072276   4.918913   4.691992   5.070151
    21  H    1.097500   3.409230   4.488763   4.322191   5.191379
    22  H    2.742066   1.097834   3.305218   4.233611   4.318304
    23  H    3.478730   1.096719   2.494316   4.767586   5.229981
    24  H    4.610656   2.564383   0.972361   4.035456   4.723985
    25  H    4.106939   4.703191   4.095895   1.099002   2.127347
    26  H    4.830479   4.077528   3.863838   2.191838   1.093714
    27  H    4.251879   4.478404   4.757921   2.184904   1.093785
    28  H    5.584269   5.456633   4.950854   2.171595   1.095912
    29  H    5.411520   4.402949   2.684069   2.188423   2.756607
    30  H    5.121736   4.774392   2.947314   2.178264   3.467191
    31  H    5.999125   5.664941   4.137520   2.172608   2.757417
                   11         12         13         14         15
    11  C    0.000000
    12  H    7.305947   0.000000
    13  H    7.164275   1.773347   0.000000
    14  H    7.091383   1.770108   1.771402   0.000000
    15  H    5.044905   2.478235   3.058897   2.460587   0.000000
    16  H    3.111641   5.552248   4.813632   4.898662   3.772895
    17  H    4.302734   4.670067   4.018182   4.963638   3.770222
    18  H    4.152643   4.867410   4.841099   5.572709   3.800216
    19  H    2.737296   4.760055   5.001124   4.902134   2.581402
    20  H    5.980945   2.731216   2.471929   3.654102   3.019859
    21  H    5.417425   2.804461   3.458270   3.895336   2.299704
    22  H    5.110414   3.793903   2.622147   3.183112   3.050943
    23  H    5.200093   3.725344   3.038406   2.506308   2.515756
    24  H    3.785079   5.479307   5.165264   4.442727   3.386481
    25  H    2.124543   6.705076   6.658213   6.985294   4.850657
    26  H    2.809914   7.152487   6.366821   6.838392   5.487645
    27  H    3.467918   6.874968   6.211095   6.998629   5.526502
    28  H    2.707352   8.177688   7.620715   8.137290   6.436914
    29  H    1.094595   7.423613   7.115146   6.949738   5.153348
    30  H    1.094894   7.128407   7.239105   6.959048   4.752672
    31  H    1.095616   8.326626   8.171058   8.170135   6.100045
                   16         17         18         19         20
    16  H    0.000000
    17  H    2.959239   0.000000
    18  H    4.010592   1.758740   0.000000
    19  H    3.028596   3.049863   2.517631   0.000000
    20  H    4.441991   2.306213   2.612444   3.754308   0.000000
    21  H    4.668147   3.006693   2.332041   2.808358   1.752294
    22  H    2.330875   2.568011   3.952412   3.762004   2.921204
    23  H    2.631232   3.963058   4.937118   3.802368   3.980442
    24  H    2.240487   4.707149   5.341313   3.383897   5.436302
    25  H    3.753315   3.216308   2.460694   2.392563   4.849037
    26  H    2.216957   3.091246   3.980758   3.879371   5.294416
    27  H    3.297909   2.276971   2.832917   3.813133   4.545639
    28  H    3.751304   3.851235   4.079422   4.292365   6.081768
    29  H    2.630733   4.562812   4.788726   3.237148   6.268765
    30  H    3.646024   4.782437   4.365067   2.479463   6.115990
    31  H    4.025336   5.021046   4.768056   3.687875   6.838735
                   21         22         23         24         25
    21  H    0.000000
    22  H    3.789237   0.000000
    23  H    4.259867   1.764550   0.000000
    24  H    5.193246   3.379159   2.253034   0.000000
    25  H    4.277879   5.003192   5.605512   4.973789   0.000000
    26  H    5.602977   3.917614   4.774255   4.249537   3.062027
    27  H    4.902140   4.215523   5.430174   5.355394   2.468555
    28  H    6.122778   5.397948   6.258636   5.530300   2.460617
    29  H    5.885586   4.866906   4.804689   3.167133   3.056117
    30  H    5.262094   5.453507   5.275192   3.743070   2.499870
    31  H    6.281668   6.070906   6.261396   4.800668   2.420776
                   26         27         28         29         30
    26  H    0.000000
    27  H    1.773063   0.000000
    28  H    1.764730   1.759457   0.000000
    29  H    2.617680   3.793679   3.030288   0.000000
    30  H    3.810472   4.325645   3.727292   1.776652   0.000000
    31  H    3.183994   3.735872   2.504339   1.765679   1.766759
                   31
    31  H    0.000000
 Stoichiometry    C10H20O
 Framework group  C1[X(C10H20O)]
 Deg. of freedom    87
 Full point group                 C1      NOp   1
 Largest Abelian subgroup         C1      NOp   1
 Largest concise Abelian subgroup C1      NOp   1
                         Standard orientation:                         
 ---------------------------------------------------------------------
 Center     Atomic      Atomic             Coordinates (Angstroms)
 Number     Number       Type             X           Y           Z
 ---------------------------------------------------------------------
      1          6           0       -3.659067    0.059187    0.040654
      2          6           0       -2.163779    0.060958   -0.270242
      3          6           0        0.119980    0.890754    0.461128
      4          6           0       -0.168353   -1.550906   -0.148554
      5          6           0        0.640773   -0.273434   -0.416855
      6          6           0       -1.650532   -1.371529   -0.493377
      7          6           0       -1.365477    0.760015    0.835416
      8          8           0        0.301250    2.108262   -0.267426
      9          6           0        2.174120   -0.526644   -0.305814
     10          6           0        2.632632   -1.035741    1.064524
     11          6           0        2.995549    0.705273   -0.697806
     12          1           0       -4.221156   -0.431408   -0.760966
     13          1           0       -3.870659   -0.468186    0.977010
     14          1           0       -4.036380    1.082666    0.137211
     15          1           0       -2.023457    0.625564   -1.202075
     16          1           0        0.699979    0.986009    1.383986
     17          1           0       -0.089562   -1.826366    0.910425
     18          1           0        0.232574   -2.394694   -0.722485
     19          1           0        0.466236   -0.001801   -1.469431
     20          1           0       -2.230267   -2.093598    0.095205
     21          1           0       -1.814432   -1.638779   -1.545147
     22          1           0       -1.453031    0.176565    1.761246
     23          1           0       -1.794161    1.749121    1.037137
     24          1           0        0.039580    2.841244    0.315455
     25          1           0        2.420224   -1.312052   -1.034080
     26          1           0        2.432690   -0.312406    1.860150
     27          1           0        2.143862   -1.978468    1.326699
     28          1           0        3.711791   -1.226541    1.058568
     29          1           0        2.899571    1.509043    0.038998
     30          1           0        2.682850    1.090232   -1.673930
     31          1           0        4.058668    0.450162   -0.769015
 ---------------------------------------------------------------------
 Rotational constants (GHZ):      1.8827196      0.6999148      0.5871561
 Standard basis: STO-3G (5D, 7F)
 There are    75 symmetry adapted basis functions of A   symmetry.
 Integral buffers will be    131072 words long.
 Raffenetti 1 integral format.
 Two-electron integral symmetry is turned on.
    75 basis functions,   225 primitive gaussians,    75 cartesian basis functions
    44 alpha electrons       44 beta electrons
       nuclear repulsion energy       692.6979838312 Hartrees.
 NAtoms=   31 NActive=   31 NUniq=   31 SFac= 1.00D+00 NAtFMM=   60 NAOKFM=F Big=F
 One-electron integrals computed using PRISM.
 NBasis=    75 RedAO= T  NBF=    75
 NBsUse=    75 1.00D-06 NBFU=    75
 Harris functional with IExCor=  205 diagonalized for initial guess.
 ExpMin= 1.69D-01 ExpMax= 1.31D+02 ExpMxC= 1.31D+02 IAcc=1 IRadAn=         1 AccDes= 0.00D+00
 HarFok:  IExCor=  205 AccDes= 0.00D+00 IRadAn=         1 IDoV= 1
 ScaDFX=  1.000000  1.000000  1.000000  1.000000
 FoFCou: FMM=F IPFlag=           0 FMFlag=      100000 FMFlg1=           0
         NFxFlg=           0 DoJE=T BraDBF=F KetDBF=T FulRan=T
         Omega=  0.000000  0.000000  1.000000  0.000000  0.000000 ICntrl=     500 IOpCl=  0
         NMat0=    1 NMatS0=    1 NMatT0=    0 NMatD0=    1 NMtDS0=    0 NMtDT0=    0
         I1Cent=           4 NGrid=           0.
 Petite list used in FoFCou.
 Initial guess orbital symmetries:
       Occupied  (A) (A) (A) (A) (A) (A) (A) (A) (A) (A) (A) (A)
                 (A) (A) (A) (A) (A) (A) (A) (A) (A) (A) (A) (A)
                 (A) (A) (A) (A) (A) (A) (A) (A) (A) (A) (A) (A)
                 (A) (A) (A) (A) (A) (A) (A) (A)
       Virtual   (A) (A) (A) (A) (A) (A) (A) (A) (A) (A) (A) (A)
                 (A) (A) (A) (A) (A) (A) (A) (A) (A) (A) (A) (A)
                 (A) (A) (A) (A) (A) (A) (A)
 The electronic state of the initial guess is 1-A.
 Requested convergence on RMS density matrix=1.00D-08 within 128 cycles.
 Requested convergence on MAX density matrix=1.00D-06.
 Requested convergence on             energy=1.00D-06.
 No special actions if energy rises.
 Keep R1 ints in memory in canonical form, NReq=4898789.
 SCF Done:  E(RHF) =  -459.614197848     A.U. after   10 cycles
             Convg  =    0.6557D-08             -V/T =  2.0089
 Range of M.O.s used for correlation:     1    75
 NBasis=    75 NAE=    44 NBE=    44 NFC=     0 NFV=     0
 NROrb=     75 NOA=    44 NOB=    44 NVA=    31 NVB=    31
          Differentiating once with respect to magnetic field using GIAOs.
          Electric field/nuclear overlap derivatives assumed to be zero.
          Keep R3 ints in memory in canonical form, NReq=4863575.
 FoFCou: FMM=F IPFlag=           0 FMFlag=           0 FMFlg1=           0
         NFxFlg=           0 DoJE=F BraDBF=F KetDBF=T FulRan=T
         Omega=  0.000000  0.000000  1.000000  0.000000  0.000000 ICntrl=    6100 IOpCl=  0
         NMat0=    1 NMatS0=    1 NMatT0=    0 NMatD0=    1 NMtDS0=    0 NMtDT0=    0
         I1Cent=           7 NGrid=          31.
 Symmetry not used in FoFCou.
          There are     3 degrees of freedom in the 1st order CPHF.  IDoFFX=0.
      3 vectors produced by pass  0 Test12= 4.55D-14 3.33D-08 XBig12= 7.37D+00 4.59D-01.
 AX will form     3 AO Fock derivatives at one time.
      3 vectors produced by pass  1 Test12= 4.55D-14 3.33D-08 XBig12= 1.05D-02 1.84D-02.
      3 vectors produced by pass  2 Test12= 4.55D-14 3.33D-08 XBig12= 7.06D-05 2.20D-03.
      3 vectors produced by pass  3 Test12= 4.55D-14 3.33D-08 XBig12= 1.69D-06 4.08D-04.
      3 vectors produced by pass  4 Test12= 4.55D-14 3.33D-08 XBig12= 2.14D-08 2.61D-05.
      3 vectors produced by pass  5 Test12= 4.55D-14 3.33D-08 XBig12= 2.51D-10 2.24D-06.
      3 vectors produced by pass  6 Test12= 4.55D-14 3.33D-08 XBig12= 2.00D-12 1.86D-07.
 Inverted reduced A of dimension    21 with in-core refinement.
 Calculating GIAO nuclear magnetic shielding tensors.
 SCF GIAO Magnetic shielding tensor (ppm):
      1  C    Isotropic =   221.1095   Anisotropy =    27.5413
   XX=   238.8387   YX=    -3.3606   ZX=    -2.4750
   XY=    -0.9361   YY=   214.6240   ZY=     0.2649
   XZ=    -4.9121   YZ=    -1.6858   ZZ=   209.8659
   Eigenvalues:   209.2228   214.6354   239.4704
      2  C    Isotropic =   216.9100   Anisotropy =     8.6250
   XX=   222.4533   YX=    -1.3243   ZX=     1.8664
   XY=    -1.0289   YY=   215.9623   ZY=     5.5174
   XZ=    -0.1248   YZ=     4.5104   ZZ=   212.3146
   Eigenvalues:   208.6631   219.4070   222.6600
      3  C    Isotropic =   188.9880   Anisotropy =    38.5186
   XX=   180.4621   YX=     1.7173   ZX=    -7.2049
   XY=     1.7048   YY=   209.5340   ZY=   -12.8594
   XZ=    -5.6245   YZ=   -13.6437   ZZ=   176.9678
   Eigenvalues:   169.4568   182.8400   214.6670
      4  C    Isotropic =   217.9925   Anisotropy =    15.9384
   XX=   227.1325   YX=     2.7487   ZX=    -0.4460
   XY=     3.6339   YY=   221.5909   ZY=    -0.4255
   XZ=    -1.7348   YZ=     1.1689   ZZ=   205.2542
   Eigenvalues:   205.1824   220.1770   228.6182
      5  C    Isotropic =   210.0734   Anisotropy =    12.3603
   XX=   217.7952   YX=    -1.8429   ZX=     0.3565
   XY=    -2.1556   YY=   210.6029   ZY=     1.5831
   XZ=    -0.0019   YZ=    -0.4519   ZZ=   201.8221
   Eigenvalues:   201.7799   210.1268   218.3137
      6  C    Isotropic =   216.3621   Anisotropy =    19.1677
   XX=   224.8610   YX=    -3.5304   ZX=    -0.7731
   XY=    -6.5534   YY=   222.3836   ZY=     4.1775
   XZ=    -0.9359   YZ=     3.2243   ZZ=   201.8418
   Eigenvalues:   201.1953   218.7505   229.1406
      7  C    Isotropic =   213.1283   Anisotropy =    20.2533
   XX=   225.5223   YX=     3.0695   ZX=    -3.2675
   XY=     4.5570   YY=   212.6537   ZY=     4.8096
   XZ=     2.5410   YZ=     6.9932   ZZ=   201.2089
   Eigenvalues:   198.5847   214.1696   226.6305
      8  O    Isotropic =   347.8624   Anisotropy =    99.0323
   XX=   332.2705   YX=   -27.2532   ZX=   -18.1886
   XY=   -14.6795   YY=   372.1010   ZY=    30.8361
   XZ=   -38.1331   YZ=    51.9372   ZZ=   339.2156
   Eigenvalues:   303.4922   326.2110   413.8839
      9  C    Isotropic =   212.5329   Anisotropy =    16.9143
   XX=   223.7636   YX=    -0.0483   ZX=    -2.7686
   XY=    -1.2199   YY=   208.0533   ZY=    -3.2739
   XZ=     1.3895   YZ=    -1.4849   ZZ=   205.7818
   Eigenvalues:   204.2375   209.5521   223.8091
     10  C    Isotropic =   224.4966   Anisotropy =    20.6133
   XX=   221.8292   YX=    -2.8244   ZX=     5.7141
   XY=    -1.7147   YY=   219.7737   ZY=    -7.3483
   XZ=     3.8770   YZ=   -10.2836   ZZ=   231.8869
   Eigenvalues:   215.1250   220.1260   238.2388
     11  C    Isotropic =   221.1232   Anisotropy =    24.5382
   XX=   223.4020   YX=     9.2447   ZX=    -4.9066
   XY=     9.3349   YY=   225.5510   ZY=   -10.6139
   XZ=    -2.4066   YZ=    -7.2157   ZZ=   214.4166
   Eigenvalues:   209.2934   216.5942   237.4820
     12  H    Isotropic =    32.3450   Anisotropy =    13.8309
   XX=    37.1940   YX=     2.5596   ZX=     5.6279
   XY=     2.4725   YY=    28.5581   ZY=     3.4992
   XZ=     5.2025   YZ=     3.1238   ZZ=    31.2828
   Eigenvalues:    26.2026    29.2667    41.5655
     13  H    Isotropic =    32.7264   Anisotropy =    11.6547
   XX=    34.2577   YX=     2.1476   ZX=    -4.4434
   XY=     1.9990   YY=    29.4690   ZY=    -3.7071
   XZ=    -4.7164   YZ=    -3.7788   ZZ=    34.4526
   Eigenvalues:    27.4364    30.2466    40.4963
     14  H    Isotropic =    32.5153   Anisotropy =    13.6759
   XX=    35.2517   YX=    -6.0401   ZX=    -0.3080
   XY=    -5.7995   YY=    35.9871   ZY=     1.1754
   XZ=    -0.4884   YZ=     1.1497   ZZ=    26.3070
   Eigenvalues:    26.1531    29.7601    41.6326
     15  H    Isotropic =    32.2957   Anisotropy =    10.0792
   XX=    31.2639   YX=     0.1298   ZX=     1.1073
   XY=     0.0291   YY=    29.9603   ZY=    -5.4192
   XZ=     0.8532   YZ=    -5.4138   ZZ=    35.6628
   Eigenvalues:    26.6185    31.2533    39.0151
     16  H    Isotropic =    31.9944   Anisotropy =     8.3042
   XX=    33.5940   YX=    -0.5023   ZX=     3.0113
   XY=    -1.3256   YY=    28.4617   ZY=     2.1100
   XZ=     4.2674   YZ=     2.4865   ZZ=    33.9276
   Eigenvalues:    26.8257    31.6270    37.5306
     17  H    Isotropic =    32.7146   Anisotropy =     9.7832
   XX=    32.2156   YX=     0.3588   ZX=     1.7822
   XY=    -0.0581   YY=    31.2700   ZY=    -5.4366
   XZ=     1.6466   YZ=    -6.1482   ZZ=    34.6581
   Eigenvalues:    26.6847    32.2223    39.2367
     18  H    Isotropic =    32.4735   Anisotropy =    13.1993
   XX=    32.3370   YX=    -2.6234   ZX=    -1.1158
   XY=    -2.6763   YY=    37.6908   ZY=     5.8899
   XZ=    -1.0677   YZ=     5.8631   ZZ=    27.3926
   Eigenvalues:    24.7270    31.4203    41.2730
     19  H    Isotropic =    32.1229   Anisotropy =     8.6429
   XX=    31.7306   YX=     0.3711   ZX=     0.6556
   XY=     0.4358   YY=    27.2119   ZY=    -2.1633
   XZ=     0.2485   YZ=    -2.1523   ZZ=    37.4263
   Eigenvalues:    26.7276    31.7563    37.8849
     20  H    Isotropic =    32.5782   Anisotropy =    12.8368
   XX=    34.6516   YX=     4.4009   ZX=    -2.3573
   XY=     4.2683   YY=    36.1786   ZY=    -3.3245
   XZ=    -2.6488   YZ=    -3.7839   ZZ=    26.9043
   Eigenvalues:    25.5632    31.0353    41.1360
     21  H    Isotropic =    32.1653   Anisotropy =    13.6578
   XX=    30.0052   YX=     0.2361   ZX=     3.5594
   XY=     0.3593   YY=    29.8067   ZY=     6.2125
   XZ=     3.5347   YZ=     6.2090   ZZ=    36.6841
   Eigenvalues:    25.5175    29.7080    41.2705
     22  H    Isotropic =    32.6368   Anisotropy =    10.1730
   XX=    30.9167   YX=     0.8063   ZX=    -1.8488
   XY=     0.7263   YY=    28.6035   ZY=    -2.6669
   XZ=    -1.9299   YZ=    -2.1075   ZZ=    38.3903
   Eigenvalues:    28.0114    30.4803    39.4188
     23  H    Isotropic =    32.8986   Anisotropy =    12.2572
   XX=    33.3053   YX=    -3.0439   ZX=    -1.3735
   XY=    -3.0754   YY=    37.5056   ZY=     5.0889
   XZ=    -1.8968   YZ=     4.6297   ZZ=    27.8851
   Eigenvalues:    25.8412    31.7847    41.0701
     24  H    Isotropic =    35.0922   Anisotropy =    19.1990
   XX=    28.0631   YX=    -2.1358   ZX=    -3.6098
   XY=    -1.5254   YY=    46.0429   ZY=     4.2245
   XZ=    -2.6861   YZ=     5.6337   ZZ=    31.1706
   Eigenvalues:    26.0388    31.3462    47.8915
     25  H    Isotropic =    32.3956   Anisotropy =    12.5927
   XX=    31.4000   YX=    -2.5615   ZX=    -3.2857
   XY=    -2.4387   YY=    33.4131   ZY=     6.3436
   XZ=    -2.9846   YZ=     6.0541   ZZ=    32.3738
   Eigenvalues:    26.5671    29.8289    40.7908
     26  H    Isotropic =    32.7831   Anisotropy =     9.6527
   XX=    30.2516   YX=    -1.6189   ZX=     1.3221
   XY=    -1.8826   YY=    30.5048   ZY=     3.6817
   XZ=     1.6990   YZ=     3.6835   ZZ=    37.5930
   Eigenvalues:    27.2815    31.8496    39.2183
     27  H    Isotropic =    32.6226   Anisotropy =    11.2401
   XX=    31.5894   YX=     2.0988   ZX=     1.2968
   XY=     1.8378   YY=    36.5851   ZY=    -5.6560
   XZ=     1.1597   YZ=    -6.1399   ZZ=    29.6933
   Eigenvalues:    25.6002    32.1515    40.1160
     28  H    Isotropic =    32.5698   Anisotropy =    14.7019
   XX=    40.4237   YX=    -3.8430   ZX=     2.6907
   XY=    -3.7987   YY=    28.5195   ZY=    -2.2778
   XZ=     2.9232   YZ=    -2.2952   ZZ=    28.7662
   Eigenvalues:    26.2779    29.0604    42.3711
     29  H    Isotropic =    32.2886   Anisotropy =     9.0145
   XX=    31.7972   YX=     2.0972   ZX=    -0.8394
   XY=     2.3224   YY=    35.9496   ZY=     4.0102
   XZ=    -0.4605   YZ=     4.0632   ZZ=    29.1190
   Eigenvalues:    26.7620    31.8055    38.2983
     30  H    Isotropic =    32.1567   Anisotropy =    12.0191
   XX=    30.3996   YX=     0.9463   ZX=    -1.1802
   XY=     0.7808   YY=    29.7005   ZY=    -6.3632
   XZ=    -0.9993   YZ=    -5.8092   ZZ=    36.3698
   Eigenvalues:    26.0868    30.2137    40.1694
     31  H    Isotropic =    32.4581   Anisotropy =    14.8884
   XX=    41.7917   YX=     0.2914   ZX=    -3.0804
   XY=     0.4940   YY=    28.1607   ZY=    -1.2493
   XZ=    -2.7240   YZ=    -1.3065   ZZ=    27.4218
   Eigenvalues:    26.1555    28.8350    42.3837
 End of Minotr Frequency-dependent properties file   721 does not exist.
 End of Minotr Frequency-dependent properties file   722 does not exist.

 **********************************************************************

            Population analysis using the SCF density.

 **********************************************************************

 Orbital symmetries:
       Occupied  (A) (A) (A) (A) (A) (A) (A) (A) (A) (A) (A) (A)
                 (A) (A) (A) (A) (A) (A) (A) (A) (A) (A) (A) (A)
                 (A) (A) (A) (A) (A) (A) (A) (A) (A) (A) (A) (A)
                 (A) (A) (A) (A) (A) (A) (A) (A)
       Virtual   (A) (A) (A) (A) (A) (A) (A) (A) (A) (A) (A) (A)
                 (A) (A) (A) (A) (A) (A) (A) (A) (A) (A) (A) (A)
                 (A) (A) (A) (A) (A) (A) (A)
 The electronic state is 1-A.
 Alpha  occ. eigenvalues --  -20.23393 -11.08371 -11.04377 -11.04341 -11.04224
 Alpha  occ. eigenvalues --  -11.03712 -11.03520 -11.03317 -11.03107 -11.02806
 Alpha  occ. eigenvalues --  -11.02187  -1.27521  -1.07984  -1.03451  -0.96728
 Alpha  occ. eigenvalues --   -0.94408  -0.88502  -0.87634  -0.79727  -0.78581
 Alpha  occ. eigenvalues --   -0.73313  -0.67308  -0.63197  -0.60972  -0.59692
 Alpha  occ. eigenvalues --   -0.57298  -0.55239  -0.53591  -0.52781  -0.52463
 Alpha  occ. eigenvalues --   -0.52356  -0.49641  -0.48801  -0.48344  -0.46149
 Alpha  occ. eigenvalues --   -0.45601  -0.44131  -0.42621  -0.42106  -0.40178
 Alpha  occ. eigenvalues --   -0.38911  -0.38469  -0.36857  -0.32888
 Alpha virt. eigenvalues --    0.53129   0.56175   0.57388   0.59674   0.60913
 Alpha virt. eigenvalues --    0.61864   0.62202   0.64209   0.65067   0.66624
 Alpha virt. eigenvalues --    0.69489   0.69791   0.70860   0.71225   0.71547
 Alpha virt. eigenvalues --    0.72470   0.73770   0.74207   0.75302   0.76334
 Alpha virt. eigenvalues --    0.77222   0.77592   0.79113   0.79475   0.80037
 Alpha virt. eigenvalues --    0.81181   0.81930   0.82606   0.85036   0.86332
 Alpha virt. eigenvalues --    0.87905
          Condensed to atoms (all electrons):
              1          2          3          4          5          6
     1  C    4.739126   0.366000   0.000711   0.000682   0.000023  -0.024030
     2  C    0.366000   4.745333  -0.021137  -0.020304  -0.006887   0.361972
     3  C    0.000711  -0.021137   4.745180  -0.022009   0.358546  -0.002800
     4  C    0.000682  -0.020304  -0.022009   4.757538   0.361952   0.361206
     5  C    0.000023  -0.006887   0.358546   0.361952   4.771922  -0.021252
     6  C   -0.024030   0.361972  -0.002800   0.361206  -0.021252   4.760019
     7  C   -0.023744   0.362971   0.356766  -0.007495  -0.020491  -0.023532
     8  O   -0.000002  -0.000074   0.265961   0.000250  -0.018251   0.000010
     9  C    0.000000   0.000020  -0.018757  -0.021177   0.359016   0.000640
    10  C    0.000000   0.000000  -0.001742  -0.002303  -0.020271   0.000009
    11  C    0.000000   0.000000  -0.001456   0.000633  -0.021633  -0.000004
    12  H    0.382542  -0.020226  -0.000017   0.000011   0.000000  -0.002137
    13  H    0.382094  -0.020828   0.000004   0.000017   0.000000  -0.002302
    14  H    0.382230  -0.020314   0.000013  -0.000017   0.000000   0.001290
    15  H   -0.024634   0.383093  -0.002511   0.000211  -0.000129  -0.023704
    16  H   -0.000017   0.001237   0.375842   0.000226  -0.022494   0.000021
    17  H   -0.000004   0.000026  -0.002488   0.381922  -0.022666  -0.023499
    18  H   -0.000012   0.001139   0.001155   0.383422  -0.020352  -0.021651
    19  H    0.000001  -0.000206  -0.023527  -0.024041   0.378916  -0.002780
    20  H   -0.005215  -0.021291   0.000007  -0.022940   0.001232   0.382358
    21  H    0.000119  -0.022704   0.000016  -0.022378  -0.000183   0.382372
    22  H   -0.001895  -0.022830  -0.020867  -0.000400   0.000296  -0.002477
    23  H   -0.002607  -0.021168  -0.020984   0.000078   0.000968   0.001237
    24  H   -0.000001   0.000018  -0.040718  -0.000042   0.002519  -0.000002
    25  H    0.000000  -0.000001   0.001076  -0.002401  -0.023488   0.000012
    26  H    0.000000   0.000000  -0.000632   0.000013  -0.001527  -0.000002
    27  H    0.000000   0.000000   0.000049  -0.000872  -0.001506   0.000004
    28  H    0.000000   0.000000   0.000014   0.000027   0.001108   0.000000
    29  H    0.000000   0.000000  -0.000248  -0.000001  -0.001276   0.000000
    30  H    0.000000   0.000000  -0.000019   0.000017  -0.002449   0.000000
    31  H    0.000000   0.000000   0.000005  -0.000014   0.001161   0.000000
              7          8          9         10         11         12
     1  C   -0.023744  -0.000002   0.000000   0.000000   0.000000   0.382542
     2  C    0.362971  -0.000074   0.000020   0.000000   0.000000  -0.020226
     3  C    0.356766   0.265961  -0.018757  -0.001742  -0.001456  -0.000017
     4  C   -0.007495   0.000250  -0.021177  -0.002303   0.000633   0.000011
     5  C   -0.020491  -0.018251   0.359016  -0.020271  -0.021633   0.000000
     6  C   -0.023532   0.000010   0.000640   0.000009  -0.000004  -0.002137
     7  C    4.783817  -0.020340   0.000526   0.000010   0.000004   0.001289
     8  O   -0.020340   7.851791   0.000102   0.000007  -0.000460   0.000000
     9  C    0.000526   0.000102   4.738633   0.364284   0.364470   0.000000
    10  C    0.000010   0.000007   0.364284   4.744207  -0.026209   0.000000
    11  C    0.000004  -0.000460   0.364470  -0.026209   4.740004   0.000000
    12  H    0.001289   0.000000   0.000000   0.000000   0.000000   0.629247
    13  H   -0.002185   0.000000   0.000000   0.000000   0.000000  -0.021657
    14  H   -0.002210   0.000000   0.000000   0.000000   0.000000  -0.021585
    15  H   -0.024712   0.000309   0.000001   0.000000   0.000000  -0.002288
    16  H   -0.027663  -0.019189  -0.003637  -0.000711  -0.000137   0.000000
    17  H   -0.000222   0.000001  -0.001318  -0.000761  -0.000006   0.000000
    18  H    0.000063  -0.000004  -0.002535  -0.000044   0.000018  -0.000001
    19  H    0.000052  -0.001594  -0.023971   0.001152  -0.002481   0.000000
    20  H    0.000026   0.000000  -0.000014   0.000000   0.000000  -0.000099
    21  H    0.001275   0.000000  -0.000006   0.000000   0.000000   0.000203
    22  H    0.379294   0.000650  -0.000008   0.000004   0.000000   0.000000
    23  H    0.381510  -0.002658  -0.000010   0.000000   0.000000   0.000025
    24  H   -0.003058   0.257071  -0.000032   0.000000   0.000016   0.000000
    25  H   -0.000013  -0.000008   0.381716  -0.025109  -0.024734   0.000000
    26  H   -0.000010   0.000004  -0.020250   0.381992  -0.001956   0.000000
    27  H   -0.000003   0.000000  -0.019759   0.382656   0.001326   0.000000
    28  H    0.000000   0.000000  -0.019805   0.382359  -0.002722   0.000000
    29  H    0.000003  -0.000088  -0.020323  -0.002512   0.382417   0.000000
    30  H   -0.000001  -0.000025  -0.020063   0.001314   0.382734   0.000000
    31  H    0.000000   0.000010  -0.020190  -0.002044   0.381883   0.000000
             13         14         15         16         17         18
     1  C    0.382094   0.382230  -0.024634  -0.000017  -0.000004  -0.000012
     2  C   -0.020828  -0.020314   0.383093   0.001237   0.000026   0.001139
     3  C    0.000004   0.000013  -0.002511   0.375842  -0.002488   0.001155
     4  C    0.000017  -0.000017   0.000211   0.000226   0.381922   0.383422
     5  C    0.000000   0.000000  -0.000129  -0.022494  -0.022666  -0.020352
     6  C   -0.002302   0.001290  -0.023704   0.000021  -0.023499  -0.021651
     7  C   -0.002185  -0.002210  -0.024712  -0.027663  -0.000222   0.000063
     8  O    0.000000   0.000000   0.000309  -0.019189   0.000001  -0.000004
     9  C    0.000000   0.000000   0.000001  -0.003637  -0.001318  -0.002535
    10  C    0.000000   0.000000   0.000000  -0.000711  -0.000761  -0.000044
    11  C    0.000000   0.000000   0.000000  -0.000137  -0.000006   0.000018
    12  H   -0.021657  -0.021585  -0.002288   0.000000   0.000000  -0.000001
    13  H    0.632126  -0.021885   0.001914   0.000000   0.000004  -0.000001
    14  H   -0.021885   0.631754  -0.002403  -0.000001   0.000000   0.000000
    15  H    0.001914  -0.002403   0.646628   0.000022  -0.000024  -0.000021
    16  H    0.000000  -0.000001   0.000022   0.662980   0.000252  -0.000026
    17  H    0.000004   0.000000  -0.000024   0.000252   0.648826  -0.023807
    18  H   -0.000001   0.000000  -0.000021  -0.000026  -0.023807   0.637729
    19  H    0.000000   0.000000  -0.000432   0.001725   0.001983  -0.001852
    20  H    0.000332   0.000070   0.001816   0.000002  -0.005760   0.000167
    21  H    0.000005  -0.000027  -0.005897   0.000001   0.001967  -0.005447
    22  H    0.000385   0.000009   0.001986  -0.004461  -0.000488   0.000008
    23  H   -0.000013   0.000211  -0.001841  -0.000011   0.000002   0.000000
    24  H    0.000000   0.000000  -0.000001  -0.003837   0.000000   0.000001
    25  H    0.000000   0.000000   0.000000   0.000028   0.000044   0.000192
    26  H    0.000000   0.000000   0.000000  -0.000417   0.000034   0.000009
    27  H    0.000000   0.000000   0.000000   0.000034  -0.000863  -0.000007
    28  H    0.000000   0.000000   0.000000  -0.000015   0.000005  -0.000008
    29  H    0.000000   0.000000   0.000000  -0.000157   0.000001  -0.000001
    30  H    0.000000   0.000000   0.000000   0.000022   0.000000   0.000002
    31  H    0.000000   0.000000   0.000000  -0.000010   0.000000  -0.000001
             19         20         21         22         23         24
     1  C    0.000001  -0.005215   0.000119  -0.001895  -0.002607  -0.000001
     2  C   -0.000206  -0.021291  -0.022704  -0.022830  -0.021168   0.000018
     3  C   -0.023527   0.000007   0.000016  -0.020867  -0.020984  -0.040718
     4  C   -0.024041  -0.022940  -0.022378  -0.000400   0.000078  -0.000042
     5  C    0.378916   0.001232  -0.000183   0.000296   0.000968   0.002519
     6  C   -0.002780   0.382358   0.382372  -0.002477   0.001237  -0.000002
     7  C    0.000052   0.000026   0.001275   0.379294   0.381510  -0.003058
     8  O   -0.001594   0.000000   0.000000   0.000650  -0.002658   0.257071
     9  C   -0.023971  -0.000014  -0.000006  -0.000008  -0.000010  -0.000032
    10  C    0.001152   0.000000   0.000000   0.000004   0.000000   0.000000
    11  C   -0.002481   0.000000   0.000000   0.000000   0.000000   0.000016
    12  H    0.000000  -0.000099   0.000203   0.000000   0.000025   0.000000
    13  H    0.000000   0.000332   0.000005   0.000385  -0.000013   0.000000
    14  H    0.000000   0.000070  -0.000027   0.000009   0.000211   0.000000
    15  H   -0.000432   0.001816  -0.005897   0.001986  -0.001841  -0.000001
    16  H    0.001725   0.000002   0.000001  -0.004461  -0.000011  -0.003837
    17  H    0.001983  -0.005760   0.001967  -0.000488   0.000002   0.000000
    18  H   -0.001852   0.000167  -0.005447   0.000008   0.000000   0.000001
    19  H    0.641671   0.000016   0.000327  -0.000006  -0.000036   0.000114
    20  H    0.000016   0.644766  -0.024157   0.000272  -0.000022   0.000000
    21  H    0.000327  -0.024157   0.646012   0.000008  -0.000034   0.000000
    22  H   -0.000006   0.000272   0.000008   0.644668  -0.022785   0.000005
    23  H   -0.000036  -0.000022  -0.000034  -0.022785   0.639371   0.000586
    24  H    0.000114   0.000000   0.000000   0.000005   0.000586   0.613897
    25  H   -0.002847  -0.000001   0.000001   0.000000   0.000000   0.000002
    26  H   -0.000003   0.000000   0.000000   0.000006   0.000001   0.000002
    27  H    0.000010   0.000002   0.000000  -0.000001   0.000000   0.000000
    28  H   -0.000029   0.000000   0.000000   0.000000   0.000000   0.000000
    29  H    0.000006   0.000000   0.000000   0.000000   0.000000   0.000043
    30  H    0.000246   0.000000   0.000000   0.000000   0.000000   0.000005
    31  H    0.000025   0.000000   0.000000   0.000000   0.000000  -0.000001
             25         26         27         28         29         30
     1  C    0.000000   0.000000   0.000000   0.000000   0.000000   0.000000
     2  C   -0.000001   0.000000   0.000000   0.000000   0.000000   0.000000
     3  C    0.001076  -0.000632   0.000049   0.000014  -0.000248  -0.000019
     4  C   -0.002401   0.000013  -0.000872   0.000027  -0.000001   0.000017
     5  C   -0.023488  -0.001527  -0.001506   0.001108  -0.001276  -0.002449
     6  C    0.000012  -0.000002   0.000004   0.000000   0.000000   0.000000
     7  C   -0.000013  -0.000010  -0.000003   0.000000   0.000003  -0.000001
     8  O   -0.000008   0.000004   0.000000   0.000000  -0.000088  -0.000025
     9  C    0.381716  -0.020250  -0.019759  -0.019805  -0.020323  -0.020063
    10  C   -0.025109   0.381992   0.382656   0.382359  -0.002512   0.001314
    11  C   -0.024734  -0.001956   0.001326  -0.002722   0.382417   0.382734
    12  H    0.000000   0.000000   0.000000   0.000000   0.000000   0.000000
    13  H    0.000000   0.000000   0.000000   0.000000   0.000000   0.000000
    14  H    0.000000   0.000000   0.000000   0.000000   0.000000   0.000000
    15  H    0.000000   0.000000   0.000000   0.000000   0.000000   0.000000
    16  H    0.000028  -0.000417   0.000034  -0.000015  -0.000157   0.000022
    17  H    0.000044   0.000034  -0.000863   0.000005   0.000001   0.000000
    18  H    0.000192   0.000009  -0.000007  -0.000008  -0.000001   0.000002
    19  H   -0.002847  -0.000003   0.000010  -0.000029   0.000006   0.000246
    20  H   -0.000001   0.000000   0.000002   0.000000   0.000000   0.000000
    21  H    0.000001   0.000000   0.000000   0.000000   0.000000   0.000000
    22  H    0.000000   0.000006  -0.000001   0.000000   0.000000   0.000000
    23  H    0.000000   0.000001   0.000000   0.000000   0.000000   0.000000
    24  H    0.000002   0.000002   0.000000   0.000000   0.000043   0.000005
    25  H    0.654798   0.001921  -0.002462  -0.002352   0.001930  -0.001851
    26  H    0.001921   0.633088  -0.021872  -0.021971   0.000361   0.000005
    27  H   -0.002462  -0.021872   0.631932  -0.022163   0.000015  -0.000037
    28  H   -0.002352  -0.021971  -0.022163   0.630956  -0.000025   0.000036
    29  H    0.001930   0.000361   0.000015  -0.000025   0.626602  -0.021001
    30  H   -0.001851   0.000005  -0.000037   0.000036  -0.021001   0.624203
    31  H   -0.003138  -0.000004   0.000021   0.000093  -0.022282  -0.021836
             31
     1  C    0.000000
     2  C    0.000000
     3  C    0.000005
     4  C   -0.000014
     5  C    0.001161
     6  C    0.000000
     7  C    0.000000
     8  O    0.000010
     9  C   -0.020190
    10  C   -0.002044
    11  C    0.381883
    12  H    0.000000
    13  H    0.000000
    14  H    0.000000
    15  H    0.000000
    16  H   -0.000010
    17  H    0.000000
    18  H   -0.000001
    19  H    0.000025
    20  H    0.000000
    21  H    0.000000
    22  H    0.000000
    23  H    0.000000
    24  H   -0.000001
    25  H   -0.003138
    26  H   -0.000004
    27  H    0.000021
    28  H    0.000093
    29  H   -0.022282
    30  H   -0.021836
    31  H    0.636253
 Mulliken atomic charges:
              1
     1  C   -0.171367
     2  C   -0.023840
     3  C    0.074565
     4  C   -0.101811
     5  C   -0.032803
     6  C   -0.100978
     7  C   -0.111928
     8  O   -0.313471
     9  C   -0.017553
    10  C   -0.176286
    11  C   -0.171705
    12  H    0.054690
    13  H    0.051990
    14  H    0.052863
    15  H    0.052619
    16  H    0.040388
    17  H    0.046839
    18  H    0.051864
    19  H    0.057560
    20  H    0.048431
    21  H    0.048529
    22  H    0.048626
    23  H    0.048179
    24  H    0.173415
    25  H    0.046682
    26  H    0.051210
    27  H    0.053497
    28  H    0.054493
    29  H    0.056535
    30  H    0.058699
    31  H    0.050069
 Sum of Mulliken atomic charges =   0.00000
 Mulliken charges with hydrogens summed into heavy atoms:
              1
     1  C   -0.011825
     2  C    0.028778
     3  C    0.114954
     4  C   -0.003108
     5  C    0.024757
     6  C   -0.004018
     7  C   -0.015123
     8  O   -0.140056
     9  C    0.029129
    10  C   -0.017087
    11  C   -0.006401
 Sum of Mulliken charges with hydrogens summed into heavy atoms =   0.00000
 Electronic spatial extent (au):  <R**2>=           2152.0796
 Charge=              0.0000 electrons
 Dipole moment (field-independent basis, Debye):
    X=             -0.5039    Y=             -0.2134    Z=              1.1149  Tot=              1.2420
 Quadrupole moment (field-independent basis, Debye-Ang):
   XX=            -68.6871   YY=            -66.5538   ZZ=            -67.1743
   XY=             -1.4730   XZ=              0.1783   YZ=              3.2493
 Traceless Quadrupole moment (field-independent basis, Debye-Ang):
   XX=             -1.2153   YY=              0.9179   ZZ=              0.2974
   XY=             -1.4730   XZ=              0.1783   YZ=              3.2493
 Octapole moment (field-independent basis, Debye-Ang**2):
  XXX=              5.7168  YYY=             20.8614  ZZZ=             -2.7477  XYY=             -3.5380
  XXY=              2.5316  XXZ=             -1.2866  XZZ=             -0.6209  YZZ=              3.5423
  YYZ=              7.0553  XYZ=              2.0018
 Hexadecapole moment (field-independent basis, Debye-Ang**3):
 XXXX=          -1928.8996 YYYY=           -539.3957 ZZZZ=           -260.8338 XXXY=             -2.8912
 XXXZ=              1.7473 YYYX=             -6.7996 YYYZ=             16.3860 ZZZX=             -1.2566
 ZZZY=             -2.2229 XXYY=           -416.3398 XXZZ=           -364.0100 YYZZ=           -138.7734
 XXYZ=              2.3066 YYXZ=             -0.5429 ZZXY=              5.0352
 N-N= 6.926979838312D+02 E-N=-2.457547378469D+03  KE= 4.555390563930D+02
 ******************************Gaussian NBO Version 3.1******************************
             N A T U R A L   A T O M I C   O R B I T A L   A N D
          N A T U R A L   B O N D   O R B I T A L   A N A L Y S I S
 ******************************Gaussian NBO Version 3.1******************************
       /RESON  / : Allow strongly delocalized NBO set
       /NLMO   / : Form Natural Localized Molecular Orbitals
       /NMR /    : Analyze NMR Sheilding Tensor 

 Analyzing the SCF density

 Job title: comment                                                         

 Storage needed:     19864 in NPA,     23691 in NBO,     45933 in NLMO (  33549317 available)


 NATURAL POPULATIONS:  Natural atomic orbital occupancies 
                                                          
   NAO  Atom  No  lang   Type(AO)    Occupancy      Energy
 ----------------------------------------------------------
     1    C    1  S      Cor( 1S)     1.99997     -10.96454
     2    C    1  S      Val( 2S)     1.07972      -0.18085
     3    C    1  px     Val( 2p)     0.99289       0.08844
     4    C    1  py     Val( 2p)     1.02795       0.08468
     5    C    1  pz     Val( 2p)     1.02583       0.08546

     6    C    2  S      Cor( 1S)     1.99997     -10.98643
     7    C    2  S      Val( 2S)     1.07972      -0.18975
     8    C    2  px     Val( 2p)     0.95275       0.11334
     9    C    2  py     Val( 2p)     0.96763       0.10913
    10    C    2  pz     Val( 2p)     0.98643       0.10520

    11    C    3  S      Cor( 1S)     1.99988     -11.03320
    12    C    3  S      Val( 2S)     1.09108      -0.21748
    13    C    3  px     Val( 2p)     0.96224       0.09341
    14    C    3  py     Val( 2p)     0.86638       0.10641
    15    C    3  pz     Val( 2p)     0.93668       0.10566

    16    C    4  S      Cor( 1S)     1.99996     -10.97360
    17    C    4  S      Val( 2S)     1.08453      -0.18828
    18    C    4  px     Val( 2p)     0.97536       0.09867
    19    C    4  py     Val( 2p)     0.98919       0.09767
    20    C    4  pz     Val( 2p)     1.01557       0.09323

    21    C    5  S      Cor( 1S)     1.99995     -10.98773
    22    C    5  S      Val( 2S)     1.10058      -0.20764
    23    C    5  px     Val( 2p)     0.95965       0.10746
    24    C    5  py     Val( 2p)     0.95654       0.10989
    25    C    5  pz     Val( 2p)     0.99494       0.09849

    26    C    6  S      Cor( 1S)     1.99996     -10.97179
    27    C    6  S      Val( 2S)     1.08586      -0.18722
    28    C    6  px     Val( 2p)     0.97740       0.10107
    29    C    6  py     Val( 2p)     0.98210       0.10177
    30    C    6  pz     Val( 2p)     1.01782       0.09350

    31    C    7  S      Cor( 1S)     1.99996     -10.97562
    32    C    7  S      Val( 2S)     1.09396      -0.19964
    33    C    7  px     Val( 2p)     0.98507       0.08734
    34    C    7  py     Val( 2p)     1.01046       0.08864
    35    C    7  pz     Val( 2p)     0.99838       0.08926

    36    O    8  S      Cor( 1S)     1.99999     -20.13812
    37    O    8  S      Val( 2S)     1.75151      -0.99749
    38    O    8  px     Val( 2p)     1.91541      -0.34576
    39    O    8  py     Val( 2p)     1.11346      -0.01053
    40    O    8  pz     Val( 2p)     1.55457      -0.20915

    41    C    9  S      Cor( 1S)     1.99996     -10.98746
    42    C    9  S      Val( 2S)     1.08483      -0.19216
    43    C    9  px     Val( 2p)     0.95075       0.11587
    44    C    9  py     Val( 2p)     0.97479       0.11007
    45    C    9  pz     Val( 2p)     0.96644       0.11297

    46    C   10  S      Cor( 1S)     1.99997     -10.96170
    47    C   10  S      Val( 2S)     1.07972      -0.17890
    48    C   10  px     Val( 2p)     1.02742       0.08395
    49    C   10  py     Val( 2p)     1.02358       0.08799
    50    C   10  pz     Val( 2p)     1.00171       0.09061

    51    C   11  S      Cor( 1S)     1.99997     -10.95565
    52    C   11  S      Val( 2S)     1.08059      -0.17274
    53    C   11  px     Val( 2p)     1.01296       0.09596
    54    C   11  py     Val( 2p)     1.00452       0.09709
    55    C   11  pz     Val( 2p)     1.03028       0.09198

    56    H   12  S      Val( 1S)     0.96260       0.07534

    57    H   13  S      Val( 1S)     0.96523       0.07361

    58    H   14  S      Val( 1S)     0.96438       0.07455

    59    H   15  S      Val( 1S)     0.97210       0.07286

    60    H   16  S      Val( 1S)     0.99578       0.05032

    61    H   17  S      Val( 1S)     0.97402       0.07041

    62    H   18  S      Val( 1S)     0.96886       0.07187

    63    H   19  S      Val( 1S)     0.96811       0.07482

    64    H   20  S      Val( 1S)     0.97243       0.07170

    65    H   21  S      Val( 1S)     0.97237       0.07264

    66    H   22  S      Val( 1S)     0.97160       0.06464

    67    H   23  S      Val( 1S)     0.97147       0.06186

    68    H   24  S      Val( 1S)     0.81426       0.07496

    69    H   25  S      Val( 1S)     0.97848       0.06875

    70    H   26  S      Val( 1S)     0.96593       0.07679

    71    H   27  S      Val( 1S)     0.96386       0.07822

    72    H   28  S      Val( 1S)     0.96241       0.07696

    73    H   29  S      Val( 1S)     0.96125       0.08723

    74    H   30  S      Val( 1S)     0.95911       0.08954

    75    H   31  S      Val( 1S)     0.96693       0.07988


 Summary of Natural Population Analysis:                  
                                                          
                                       Natural Population 
                Natural  -----------------------------------------------
    Atom  No    Charge         Core      Valence    Rydberg      Total
 -----------------------------------------------------------------------
      C    1   -0.12637      1.99997     4.12639    0.00000     6.12637
      C    2    0.01350      1.99997     3.98653    0.00000     5.98650
      C    3    0.14374      1.99988     3.85638    0.00000     5.85626
      C    4   -0.06462      1.99996     4.06466    0.00000     6.06462
      C    5   -0.01167      1.99995     4.01172    0.00000     6.01167
      C    6   -0.06314      1.99996     4.06318    0.00000     6.06314
      C    7   -0.08784      1.99996     4.08787    0.00000     6.08784
      O    8   -0.33494      1.99999     6.33495    0.00000     8.33494
      C    9    0.02324      1.99996     3.97680    0.00000     5.97676
      C   10   -0.13241      1.99997     4.13244    0.00000     6.13241
      C   11   -0.12832      1.99997     4.12835    0.00000     6.12832
      H   12    0.03740      0.00000     0.96260    0.00000     0.96260
      H   13    0.03477      0.00000     0.96523    0.00000     0.96523
      H   14    0.03562      0.00000     0.96438    0.00000     0.96438
      H   15    0.02790      0.00000     0.97210    0.00000     0.97210
      H   16    0.00422      0.00000     0.99578    0.00000     0.99578
      H   17    0.02598      0.00000     0.97402    0.00000     0.97402
      H   18    0.03114      0.00000     0.96886    0.00000     0.96886
      H   19    0.03189      0.00000     0.96811    0.00000     0.96811
      H   20    0.02757      0.00000     0.97243    0.00000     0.97243
      H   21    0.02763      0.00000     0.97237    0.00000     0.97237
      H   22    0.02840      0.00000     0.97160    0.00000     0.97160
      H   23    0.02853      0.00000     0.97147    0.00000     0.97147
      H   24    0.18574      0.00000     0.81426    0.00000     0.81426
      H   25    0.02152      0.00000     0.97848    0.00000     0.97848
      H   26    0.03407      0.00000     0.96593    0.00000     0.96593
      H   27    0.03614      0.00000     0.96386    0.00000     0.96386
      H   28    0.03759      0.00000     0.96241    0.00000     0.96241
      H   29    0.03875      0.00000     0.96125    0.00000     0.96125
      H   30    0.04089      0.00000     0.95911    0.00000     0.95911
      H   31    0.03307      0.00000     0.96693    0.00000     0.96693
 =======================================================================
   * Total *    0.00000     21.99955    66.00045    0.00000    88.00000

                                 Natural Population      
 --------------------------------------------------------
   Core                      21.99955 ( 99.9980% of  22)
   Valence                   66.00045 (100.0007% of  66)
   Natural Minimal Basis     88.00000 (100.0000% of  88)
   Natural Rydberg Basis      0.00000 (  0.0000% of  88)
 --------------------------------------------------------

    Atom  No          Natural Electron Configuration
 ----------------------------------------------------------------------------
      C    1      [core]2S( 1.08)2p( 3.05)
      C    2      [core]2S( 1.08)2p( 2.91)
      C    3      [core]2S( 1.09)2p( 2.77)
      C    4      [core]2S( 1.08)2p( 2.98)
      C    5      [core]2S( 1.10)2p( 2.91)
      C    6      [core]2S( 1.09)2p( 2.98)
      C    7      [core]2S( 1.09)2p( 2.99)
      O    8      [core]2S( 1.75)2p( 4.58)
      C    9      [core]2S( 1.08)2p( 2.89)
      C   10      [core]2S( 1.08)2p( 3.05)
      C   11      [core]2S( 1.08)2p( 3.05)
      H   12            1S( 0.96)
      H   13            1S( 0.97)
      H   14            1S( 0.96)
      H   15            1S( 0.97)
      H   16            1S( 1.00)
      H   17            1S( 0.97)
      H   18            1S( 0.97)
      H   19            1S( 0.97)
      H   20            1S( 0.97)
      H   21            1S( 0.97)
      H   22            1S( 0.97)
      H   23            1S( 0.97)
      H   24            1S( 0.81)
      H   25            1S( 0.98)
      H   26            1S( 0.97)
      H   27            1S( 0.96)
      H   28            1S( 0.96)
      H   29            1S( 0.96)
      H   30            1S( 0.96)
      H   31            1S( 0.97)


 NATURAL BOND ORBITAL ANALYSIS:

                       Occupancies       Lewis Structure    Low   High
           Occ.    -------------------  -----------------   occ   occ
  Cycle   Thresh.   Lewis   Non-Lewis     CR  BD  3C  LP    (L)   (NL)   Dev
 =============================================================================
   1(1)    1.90    87.64518   0.35482     11  31   0   2     0      0    0.02
 -----------------------------------------------------------------------------

 Structure accepted: No low occupancy Lewis orbitals

 --------------------------------------------------------
   Core                     21.99955 ( 99.998% of  22)
   Valence Lewis            65.64563 ( 99.463% of  66)
  ==================       ============================
   Total Lewis              87.64518 ( 99.597% of  88)
  -----------------------------------------------------
   Valence non-Lewis         0.35482 (  0.403% of  88)
   Rydberg non-Lewis         0.00000 (  0.000% of  88)
  ==================       ============================
   Total non-Lewis           0.35482 (  0.403% of  88)
 --------------------------------------------------------


       (Occupancy)   Bond orbital/ Coefficients/ Hybrids
 ---------------------------------------------------------------------------------
     1. (1.98932) BD ( 1) C   1 - C   2  
                ( 50.89%)   0.7134* C   1 s( 25.75%)p 2.88( 74.25%)
                                            0.0001  0.5075  0.8445 -0.0010 -0.1710
                ( 49.11%)   0.7008* C   2 s( 25.27%)p 2.96( 74.73%)
                                            0.0000  0.5027 -0.8418 -0.0138  0.1962
     2. (1.99495) BD ( 1) C   1 - H  12  
                ( 51.88%)   0.7203* C   1 s( 24.78%)p 3.04( 75.22%)
                                            0.0000  0.4977 -0.4297 -0.3930 -0.6428
                ( 48.12%)   0.6937* H  12 s(100.00%)
                                            1.0000
     3. (1.99532) BD ( 1) C   1 - H  13  
                ( 51.78%)   0.7196* C   1 s( 24.79%)p 3.03( 75.21%)
                                            0.0000  0.4979 -0.1493 -0.4215  0.7431
                ( 48.22%)   0.6944* H  13 s(100.00%)
                                            1.0000
     4. (1.99498) BD ( 1) C   1 - H  14  
                ( 51.80%)   0.7197* C   1 s( 24.68%)p 3.05( 75.32%)
                                            0.0000  0.4968 -0.2826  0.8172  0.0739
                ( 48.20%)   0.6943* H  14 s(100.00%)
                                            1.0000
     5. (1.98518) BD ( 1) C   2 - C   6  
                ( 49.59%)   0.7042* C   2 s( 25.08%)p 2.99( 74.92%)
                                            0.0000  0.5008  0.2882 -0.8096 -0.1036
                ( 50.41%)   0.7100* C   6 s( 25.59%)p 2.91( 74.41%)
                                            0.0001  0.5059 -0.2698  0.8061  0.1463
     6. (1.98616) BD ( 1) C   2 - C   7  
                ( 49.31%)   0.7022* C   2 s( 25.01%)p 3.00( 74.99%)
                                            0.0000  0.5001  0.4411  0.3846  0.6383
                ( 50.69%)   0.7120* C   7 s( 25.14%)p 2.98( 74.86%)
                                            0.0001  0.5014 -0.4422 -0.3899 -0.6333
     7. (1.98556) BD ( 1) C   2 - H  15  
                ( 51.33%)   0.7165* C   2 s( 24.65%)p 3.06( 75.35%)
                                            0.0000  0.4965  0.1174  0.4432 -0.7371
                ( 48.67%)   0.6976* H  15 s(100.00%)
                                            1.0000
     8. (1.98189) BD ( 1) C   3 - C   5  
                ( 50.74%)   0.7123* C   3 s( 26.92%)p 2.71( 73.08%)
                                            0.0000  0.5189  0.2791 -0.6425 -0.4900
                ( 49.26%)   0.7018* C   5 s( 25.21%)p 2.97( 74.79%)
                                            0.0001  0.5021 -0.2714  0.6389  0.5157
     9. (1.98705) BD ( 1) C   3 - C   7  
                ( 49.33%)   0.7024* C   3 s( 25.73%)p 2.89( 74.27%)
                                            0.0000  0.5073 -0.8359 -0.0957  0.1864
                ( 50.67%)   0.7118* C   7 s( 25.06%)p 2.99( 74.94%)
                                            0.0000  0.5006  0.8331  0.0657 -0.2258
    10. (1.98882) BD ( 1) C   3 - O   8  
                ( 40.97%)   0.6400* C   3 s( 21.74%)p 3.60( 78.26%)
                                            0.0000 -0.4662 -0.0968 -0.7582  0.4454
                ( 59.03%)   0.7683* O   8 s( 16.31%)p 5.13( 83.69%)
                                            0.0000 -0.4038  0.1335  0.7456 -0.5130
    11. (1.98876) BD ( 1) C   3 - H  16  
                ( 50.51%)   0.7107* C   3 s( 25.61%)p 2.90( 74.39%)
                                            0.0000  0.5061  0.4625  0.0561  0.7258
                ( 49.49%)   0.7035* H  16 s(100.00%)
                                            1.0000
    12. (1.98411) BD ( 1) C   4 - C   5  
                ( 50.41%)   0.7100* C   4 s( 25.35%)p 2.94( 74.65%)
                                            0.0001  0.5035  0.4513  0.7201 -0.1557
                ( 49.59%)   0.7042* C   5 s( 25.17%)p 2.97( 74.83%)
                                            0.0000  0.5017 -0.4375 -0.7245  0.1789
    13. (1.98906) BD ( 1) C   4 - C   6  
                ( 50.03%)   0.7073* C   4 s( 25.08%)p 2.99( 74.92%)
                                            0.0000  0.5008 -0.8315  0.1268 -0.2041
                ( 49.97%)   0.7069* C   6 s( 25.31%)p 2.95( 74.69%)
                                            0.0000  0.5031  0.8389 -0.0704  0.1955
    14. (1.99093) BD ( 1) C   4 - H  17  
                ( 51.33%)   0.7164* C   4 s( 24.41%)p 3.10( 75.59%)
                                            0.0000  0.4940  0.0598 -0.2005  0.8439
                ( 48.67%)   0.6977* H  17 s(100.00%)
                                            1.0000
    15. (1.99011) BD ( 1) C   4 - H  18  
                ( 51.53%)   0.7179* C   4 s( 25.15%)p 2.98( 74.85%)
                                            0.0000  0.5015  0.3183 -0.6520 -0.4712
                ( 48.47%)   0.6962* H  18 s(100.00%)
                                            1.0000
    16. (1.97927) BD ( 1) C   5 - C   9  
                ( 50.20%)   0.7085* C   5 s( 25.41%)p 2.94( 74.59%)
                                            0.0001  0.5040  0.8453 -0.1323  0.1180
                ( 49.80%)   0.7057* C   9 s( 25.39%)p 2.94( 74.61%)
                                            0.0001  0.5039 -0.8480  0.1631 -0.0185
    17. (1.98235) BD ( 1) C   5 - H  19  
                ( 51.46%)   0.7174* C   5 s( 24.22%)p 3.13( 75.78%)
                                            0.0000  0.4921 -0.1428  0.2222 -0.8295
                ( 48.54%)   0.6967* H  19 s(100.00%)
                                            1.0000
    18. (1.99121) BD ( 1) C   6 - H  20  
                ( 51.39%)   0.7169* C   6 s( 24.73%)p 3.04( 75.27%)
                                            0.0000  0.4973 -0.4581 -0.5536  0.4862
                ( 48.61%)   0.6972* H  20 s(100.00%)
                                            1.0000
    19. (1.99188) BD ( 1) C   6 - H  21  
                ( 51.38%)   0.7168* C   6 s( 24.37%)p 3.10( 75.63%)
                                            0.0000  0.4936 -0.1170 -0.1967 -0.8390
                ( 48.62%)   0.6973* H  21 s(100.00%)
                                            1.0000
    20. (1.98996) BD ( 1) C   7 - H  22  
                ( 51.41%)   0.7170* C   7 s( 24.47%)p 3.09( 75.53%)
                                            0.0000  0.4947 -0.0630 -0.4725  0.7267
                ( 48.59%)   0.6971* H  22 s(100.00%)
                                            1.0000
    21. (1.98761) BD ( 1) C   7 - H  23  
                ( 51.37%)   0.7167* C   7 s( 25.33%)p 2.95( 74.67%)
                                            0.0000  0.5033 -0.3262  0.7876  0.1413
                ( 48.63%)   0.6974* H  23 s(100.00%)
                                            1.0000
    22. (1.98961) BD ( 1) O   8 - H  24  
                ( 59.31%)   0.7701* O   8 s( 16.75%)p 4.97( 83.25%)
                                            0.0000  0.4093 -0.2539  0.6621  0.5741
                ( 40.69%)   0.6379* H  24 s(100.00%)
                                            1.0000
    23. (1.99039) BD ( 1) C   9 - C  10  
                ( 48.87%)   0.6991* C   9 s( 25.20%)p 2.97( 74.80%)
                                            0.0000  0.5020  0.2297 -0.2675  0.7897
                ( 51.13%)   0.7151* C  10 s( 25.91%)p 2.86( 74.09%)
                                            0.0001  0.5090 -0.2706  0.2903 -0.7638
    24. (1.98936) BD ( 1) C   9 - C  11  
                ( 49.28%)   0.7020* C   9 s( 25.17%)p 2.97( 74.83%)
                                            0.0000  0.5017  0.4403  0.7160 -0.2044
                ( 50.72%)   0.7122* C  11 s( 25.69%)p 2.89( 74.31%)
                                            0.0001  0.5068 -0.4699 -0.6868  0.2251
    25. (1.98383) BD ( 1) C   9 - H  25  
                ( 50.95%)   0.7138* C   9 s( 24.23%)p 3.13( 75.77%)
                                            0.0000  0.4923  0.1852 -0.6239 -0.5781
                ( 49.05%)   0.7004* H  25 s(100.00%)
                                            1.0000
    26. (1.99467) BD ( 1) C  10 - H  26  
                ( 51.75%)   0.7194* C  10 s( 24.87%)p 3.02( 75.13%)
                                            0.0000  0.4987 -0.1717  0.5855  0.6156
                ( 48.25%)   0.6946* H  26 s(100.00%)
                                            1.0000
    27. (1.99486) BD ( 1) C  10 - H  27  
                ( 51.84%)   0.7200* C  10 s( 24.72%)p 3.04( 75.28%)
                                            0.0000  0.4972 -0.4039 -0.7435  0.1918
                ( 48.16%)   0.6940* H  27 s(100.00%)
                                            1.0000
    28. (1.99420) BD ( 1) C  10 - H  28  
                ( 51.87%)   0.7202* C  10 s( 24.50%)p 3.08( 75.50%)
                                            0.0000  0.4950  0.8569 -0.1415 -0.0275
                ( 48.13%)   0.6938* H  28 s(100.00%)
                                            1.0000
    29. (1.99557) BD ( 1) C  11 - H  29  
                ( 51.99%)   0.7211* C  11 s( 24.93%)p 3.01( 75.07%)
                                            0.0000  0.4993 -0.0924  0.6257  0.5922
                ( 48.01%)   0.6929* H  29 s(100.00%)
                                            1.0000
    30. (1.99506) BD ( 1) C  11 - H  30  
                ( 52.06%)   0.7215* C  11 s( 24.85%)p 3.02( 75.15%)
                                            0.0000  0.4985 -0.2622  0.2942 -0.7721
                ( 47.94%)   0.6924* H  30 s(100.00%)
                                            1.0000
    31. (1.99461) BD ( 1) C  11 - H  31  
                ( 51.65%)   0.7187* C  11 s( 24.54%)p 3.08( 75.46%)
                                            0.0000  0.4953  0.8378 -0.2241 -0.0501
                ( 48.35%)   0.6953* H  31 s(100.00%)
                                            1.0000
    32. (1.99997) CR ( 1) C   1           s(100.00%)
                                            1.0000  0.0000 -0.0001  0.0000  0.0000
    33. (1.99997) CR ( 1) C   2           s(100.00%)
                                            1.0000  0.0000  0.0000  0.0000  0.0000
    34. (1.99988) CR ( 1) C   3           s(100.00%)
                                            1.0000  0.0000  0.0000  0.0000  0.0000
    35. (1.99996) CR ( 1) C   4           s(100.00%)
                                            1.0000  0.0000  0.0000 -0.0001  0.0000
    36. (1.99995) CR ( 1) C   5           s(100.00%)
                                            1.0000 -0.0001  0.0000  0.0000  0.0000
    37. (1.99996) CR ( 1) C   6           s(100.00%)
                                            1.0000  0.0000  0.0000 -0.0001  0.0000
    38. (1.99996) CR ( 1) C   7           s(100.00%)
                                            1.0000  0.0000  0.0000  0.0000  0.0001
    39. (1.99999) CR ( 1) O   8           s(100.00%)
                                            1.0000  0.0000  0.0000  0.0000  0.0000
    40. (1.99996) CR ( 1) C   9           s(100.00%)
                                            1.0000  0.0000  0.0001  0.0000  0.0000
    41. (1.99997) CR ( 1) C  10           s(100.00%)
                                            1.0000  0.0000  0.0001  0.0000  0.0001
    42. (1.99997) CR ( 1) C  11           s(100.00%)
                                            1.0000  0.0000  0.0001  0.0001  0.0000
    43. (1.99365) LP ( 1) O   8           s( 66.86%)p 0.50( 33.14%)
                                            0.0000  0.8177  0.1607  0.0345 -0.5517
    44. (1.97534) LP ( 2) O   8           s(  0.08%)p99.99( 99.92%)
                                            0.0000  0.0280  0.9444  0.0667  0.3207
    45. (0.00961) BD*( 1) C   1 - C   2  
                ( 49.11%)   0.7008* C   1 s( 25.75%)p 2.88( 74.25%)
                                           -0.0001 -0.5075 -0.8445  0.0010  0.1710
                ( 50.89%)  -0.7134* C   2 s( 25.27%)p 2.96( 74.73%)
                                            0.0000 -0.5027  0.8418  0.0138 -0.1962
    46. (0.00501) BD*( 1) C   1 - H  12  
                ( 48.12%)   0.6937* C   1 s( 24.78%)p 3.04( 75.22%)
                                            0.0000 -0.4977  0.4297  0.3930  0.6428
                ( 51.88%)  -0.7203* H  12 s(100.00%)
                                           -1.0000
    47. (0.00596) BD*( 1) C   1 - H  13  
                ( 48.22%)   0.6944* C   1 s( 24.79%)p 3.03( 75.21%)
                                            0.0000 -0.4979  0.1493  0.4215 -0.7431
                ( 51.78%)  -0.7196* H  13 s(100.00%)
                                           -1.0000
    48. (0.00523) BD*( 1) C   1 - H  14  
                ( 48.20%)   0.6943* C   1 s( 24.68%)p 3.05( 75.32%)
                                            0.0000 -0.4968  0.2826 -0.8172 -0.0739
                ( 51.80%)  -0.7197* H  14 s(100.00%)
                                           -1.0000
    49. (0.01637) BD*( 1) C   2 - C   6  
                ( 50.41%)   0.7100* C   2 s( 25.08%)p 2.99( 74.92%)
                                            0.0000  0.5008  0.2882 -0.8096 -0.1036
                ( 49.59%)  -0.7042* C   6 s( 25.59%)p 2.91( 74.41%)
                                            0.0001  0.5059 -0.2698  0.8061  0.1463
    50. (0.01555) BD*( 1) C   2 - C   7  
                ( 50.69%)   0.7120* C   2 s( 25.01%)p 3.00( 74.99%)
                                            0.0000  0.5001  0.4411  0.3846  0.6383
                ( 49.31%)  -0.7022* C   7 s( 25.14%)p 2.98( 74.86%)
                                            0.0001  0.5014 -0.4422 -0.3899 -0.6333
    51. (0.01127) BD*( 1) C   2 - H  15  
                ( 48.67%)   0.6976* C   2 s( 24.65%)p 3.06( 75.35%)
                                            0.0000 -0.4965 -0.1174 -0.4432  0.7371
                ( 51.33%)  -0.7165* H  15 s(100.00%)
                                           -1.0000
    52. (0.02712) BD*( 1) C   3 - C   5  
                ( 49.26%)   0.7018* C   3 s( 26.92%)p 2.71( 73.08%)
                                            0.0000 -0.5189 -0.2791  0.6425  0.4900
                ( 50.74%)  -0.7123* C   5 s( 25.21%)p 2.97( 74.79%)
                                           -0.0001 -0.5021  0.2714 -0.6389 -0.5157
    53. (0.02771) BD*( 1) C   3 - C   7  
                ( 50.67%)   0.7118* C   3 s( 25.73%)p 2.89( 74.27%)
                                            0.0000  0.5073 -0.8359 -0.0957  0.1864
                ( 49.33%)  -0.7024* C   7 s( 25.06%)p 2.99( 74.94%)
                                            0.0000  0.5006  0.8331  0.0657 -0.2258
    54. (0.02123) BD*( 1) C   3 - O   8  
                ( 59.03%)   0.7683* C   3 s( 21.74%)p 3.60( 78.26%)
                                            0.0000 -0.4662 -0.0968 -0.7582  0.4454
                ( 40.97%)  -0.6400* O   8 s( 16.31%)p 5.13( 83.69%)
                                            0.0000 -0.4038  0.1335  0.7456 -0.5130
    55. (0.02287) BD*( 1) C   3 - H  16  
                ( 49.49%)   0.7035* C   3 s( 25.61%)p 2.90( 74.39%)
                                            0.0000 -0.5061 -0.4625 -0.0561 -0.7258
                ( 50.51%)  -0.7107* H  16 s(100.00%)
                                           -1.0000
    56. (0.01480) BD*( 1) C   4 - C   5  
                ( 49.59%)   0.7042* C   4 s( 25.35%)p 2.94( 74.65%)
                                           -0.0001 -0.5035 -0.4513 -0.7201  0.1557
                ( 50.41%)  -0.7100* C   5 s( 25.17%)p 2.97( 74.83%)
                                            0.0000 -0.5017  0.4375  0.7245 -0.1789
    57. (0.01176) BD*( 1) C   4 - C   6  
                ( 49.97%)   0.7069* C   4 s( 25.08%)p 2.99( 74.92%)
                                            0.0000 -0.5008  0.8315 -0.1268  0.2041
                ( 50.03%)  -0.7073* C   6 s( 25.31%)p 2.95( 74.69%)
                                            0.0000 -0.5031 -0.8389  0.0704 -0.1955
    58. (0.00970) BD*( 1) C   4 - H  17  
                ( 48.67%)   0.6977* C   4 s( 24.41%)p 3.10( 75.59%)
                                            0.0000 -0.4940 -0.0598  0.2005 -0.8439
                ( 51.33%)  -0.7164* H  17 s(100.00%)
                                           -1.0000
    59. (0.00830) BD*( 1) C   4 - H  18  
                ( 48.47%)   0.6962* C   4 s( 25.15%)p 2.98( 74.85%)
                                            0.0000 -0.5015 -0.3183  0.6520  0.4712
                ( 51.53%)  -0.7179* H  18 s(100.00%)
                                           -1.0000
    60. (0.02210) BD*( 1) C   5 - C   9  
                ( 49.80%)   0.7057* C   5 s( 25.41%)p 2.94( 74.59%)
                                           -0.0001 -0.5040 -0.8453  0.1323 -0.1180
                ( 50.20%)  -0.7085* C   9 s( 25.39%)p 2.94( 74.61%)
                                           -0.0001 -0.5039  0.8480 -0.1631  0.0185
    61. (0.01158) BD*( 1) C   5 - H  19  
                ( 48.54%)   0.6967* C   5 s( 24.22%)p 3.13( 75.78%)
                                            0.0000 -0.4921  0.1428 -0.2222  0.8295
                ( 51.46%)  -0.7174* H  19 s(100.00%)
                                           -1.0000
    62. (0.00880) BD*( 1) C   6 - H  20  
                ( 48.61%)   0.6972* C   6 s( 24.73%)p 3.04( 75.27%)
                                            0.0000 -0.4973  0.4581  0.5536 -0.4862
                ( 51.39%)  -0.7169* H  20 s(100.00%)
                                           -1.0000
    63. (0.00745) BD*( 1) C   6 - H  21  
                ( 48.62%)   0.6973* C   6 s( 24.37%)p 3.10( 75.63%)
                                            0.0000 -0.4936  0.1170  0.1967  0.8390
                ( 51.38%)  -0.7168* H  21 s(100.00%)
                                           -1.0000
    64. (0.00893) BD*( 1) C   7 - H  22  
                ( 48.59%)   0.6971* C   7 s( 24.47%)p 3.09( 75.53%)
                                            0.0000 -0.4947  0.0630  0.4725 -0.7267
                ( 51.41%)  -0.7170* H  22 s(100.00%)
                                           -1.0000
    65. (0.00947) BD*( 1) C   7 - H  23  
                ( 48.63%)   0.6974* C   7 s( 25.33%)p 2.95( 74.67%)
                                            0.0000 -0.5033  0.3262 -0.7876 -0.1413
                ( 51.37%)  -0.7167* H  23 s(100.00%)
                                           -1.0000
    66. (0.00784) BD*( 1) O   8 - H  24  
                ( 40.69%)   0.6379* O   8 s( 16.75%)p 4.97( 83.25%)
                                            0.0000 -0.4093  0.2539 -0.6621 -0.5741
                ( 59.31%)  -0.7701* H  24 s(100.00%)
                                           -1.0000
    67. (0.01128) BD*( 1) C   9 - C  10  
                ( 51.13%)   0.7151* C   9 s( 25.20%)p 2.97( 74.80%)
                                            0.0000  0.5020  0.2297 -0.2675  0.7897
                ( 48.87%)  -0.6991* C  10 s( 25.91%)p 2.86( 74.09%)
                                            0.0001  0.5090 -0.2706  0.2903 -0.7638
    68. (0.01029) BD*( 1) C   9 - C  11  
                ( 50.72%)   0.7122* C   9 s( 25.17%)p 2.97( 74.83%)
                                            0.0000  0.5017  0.4403  0.7160 -0.2044
                ( 49.28%)  -0.7020* C  11 s( 25.69%)p 2.89( 74.31%)
                                            0.0001  0.5068 -0.4699 -0.6868  0.2251
    69. (0.01055) BD*( 1) C   9 - H  25  
                ( 49.05%)   0.7004* C   9 s( 24.23%)p 3.13( 75.77%)
                                            0.0000 -0.4923 -0.1852  0.6239  0.5781
                ( 50.95%)  -0.7138* H  25 s(100.00%)
                                           -1.0000
    70. (0.00685) BD*( 1) C  10 - H  26  
                ( 48.25%)   0.6946* C  10 s( 24.87%)p 3.02( 75.13%)
                                            0.0000 -0.4987  0.1717 -0.5855 -0.6156
                ( 51.75%)  -0.7194* H  26 s(100.00%)
                                           -1.0000
    71. (0.00596) BD*( 1) C  10 - H  27  
                ( 48.16%)   0.6940* C  10 s( 24.72%)p 3.04( 75.28%)
                                            0.0000 -0.4972  0.4039  0.7435 -0.1918
                ( 51.84%)  -0.7200* H  27 s(100.00%)
                                           -1.0000
    72. (0.00487) BD*( 1) C  10 - H  28  
                ( 48.13%)   0.6938* C  10 s( 24.50%)p 3.08( 75.50%)
                                            0.0000 -0.4950 -0.8569  0.1415  0.0275
[...]
   39     271.1731       -0.0056     271.1787        -0.0040     271.1771
   43      32.1878       -3.6782      35.8660        -5.2943      37.4822
   44       2.0301      -36.9491      38.9792       -37.9360      39.9661
 Sum      346.1809      -29.1143     375.2952       -31.9576     378.1385

 Contributions to Isotropic shielding for atom    9 (   212.5329 ppm):
                         Standard Origin              Atomic Origin
 NLMO      Total    Paramagnetic  Diamagnetic   Paramagnetic  Diamagnetic
   10       0.1102       -0.1918       0.3020        -0.9756       1.0858
   15      -0.1082       -0.4751       0.3668        -1.0159       0.9077
   16       5.5725       -9.9435      15.5160        -2.1176       7.6901
   17       0.4221       -0.0123       0.4344        -0.6318       1.0539
   23      -1.2361       -5.9835       4.7474        -8.6784       7.4423
   24      -1.5872       -5.5889       4.0016        -9.2103       7.6230
   25       5.2140       -0.9211       6.1351        -5.6268      10.8408
   26       0.9821       -0.2862       1.2682        -0.0464       1.0284
   27       0.6351       -0.5332       1.1683        -0.3687       1.0038
   28       0.6096       -0.2145       0.8241        -0.4201       1.0297
   29       0.9782       -0.3505       1.3287        -0.0700       1.0482
   30       0.6469       -0.6717       1.3186        -0.4026       1.0495
   31       0.6317       -0.2591       0.8909        -0.3965       1.0283
   40     199.9269       -0.0022     199.9292         0.0028     199.9242
 Sum      212.7977      -25.4336     238.2313       -29.9579     242.7557

 Contributions to Isotropic shielding for atom   10 (   224.4966 ppm):
                         Standard Origin              Atomic Origin
 NLMO      Total    Paramagnetic  Diamagnetic   Paramagnetic  Diamagnetic
   23       4.4396       -9.7414      14.1810        -3.6165       8.0561
   24      -0.4286        0.0455      -0.4741        -1.1067       0.6781
   25       0.3083        0.0157       0.2926        -0.7044       1.0127
   26       6.8996       -4.8948      11.7945        -4.2044      11.1040
   27       6.6232       -3.9949      10.6180        -4.4814      11.1046
   28       5.9409        4.0372       1.9038        -5.1628      11.1037
   41     200.0737       -0.0028     200.0765         0.0017     200.0720
 Sum      223.8568      -14.5355     238.3923       -19.2744     243.1312

 Contributions to Isotropic shielding for atom   11 (   221.1232 ppm):
                         Standard Origin              Atomic Origin
 NLMO      Total    Paramagnetic  Diamagnetic   Paramagnetic  Diamagnetic
   10       0.0744       -0.1528       0.2272        -1.1590       1.2334
   23      -0.5080        0.0098      -0.5178        -1.1921       0.6841
   24       4.2662      -10.5924      14.8586        -3.5765       7.8427
   25       0.3014        0.1219       0.1796        -0.7186       1.0201
   28      -0.1133       -0.6190       0.5057        -1.0392       0.9259
   29       6.3904       -4.9776      11.3680        -4.8119      11.2023
   30       5.8648       -4.8106      10.6754        -5.3391      11.2039
   31       4.7300        3.0125       1.7174        -6.3011      11.0311
   42     200.0741       -0.0034     200.0774         0.0021     200.0720
 Sum      221.0801      -18.0116     239.0917       -24.1354     245.2154

 Contributions to Isotropic shielding for atom   12 (    32.3450 ppm):
                         Standard Origin              Atomic Origin
 NLMO      Total    Paramagnetic  Diamagnetic   Paramagnetic  Diamagnetic
    1       1.4177       -0.6130       2.0306         0.4182       0.9995
    2      26.3172        0.1334      26.1838         0.4261      25.8911
    3       1.9010        1.7602       0.1408         0.0706       1.8304
    4       1.8809        2.0983      -0.2175         0.0495       1.8314
    5      -0.1519        0.8023      -0.9542        -1.0874       0.9355
 Sum       31.3649        4.1813      27.1836        -0.1229      31.4878

 Contributions to Isotropic shielding for atom   13 (    32.7264 ppm):
                         Standard Origin              Atomic Origin
 NLMO      Total    Paramagnetic  Diamagnetic   Paramagnetic  Diamagnetic
    1       1.6276       -1.1859       2.8135         0.7462       0.8814
    2       1.9621        1.9895      -0.0274         0.1354       1.8267
    3      26.3833        0.2663      26.1170         0.4443      25.9390
    4       1.9419        1.6694       0.2726         0.1163       1.8256
 Sum       31.9149        2.7392      29.1757         1.4422      30.4727

 Contributions to Isotropic shielding for atom   14 (    32.5153 ppm):
                         Standard Origin              Atomic Origin
 NLMO      Total    Paramagnetic  Diamagnetic   Paramagnetic  Diamagnetic
    1       1.5094       -0.8455       2.3549         0.5128       0.9966
    2       1.9357        2.2251      -0.2894         0.0907       1.8450
    3       1.9024        1.5481       0.3543         0.0644       1.8380
    4      26.3797        0.2012      26.1785         0.4398      25.9399
 Sum       31.7272        3.1289      28.5983         1.1078      30.6194

 Contributions to Isotropic shielding for atom   15 (    32.2957 ppm):
                         Standard Origin              Atomic Origin
 NLMO      Total    Paramagnetic  Diamagnetic   Paramagnetic  Diamagnetic
    1       0.7966        2.0316      -1.2349        -0.1830       0.9796
    2       0.2605       -0.9583       1.2188        -0.7013       0.9617
    4       0.2596       -1.0325       1.2921        -0.7140       0.9737
    5       1.4893        0.3508       1.1385         0.5874       0.9019
    6       1.5178       -0.0244       1.5422         0.6530       0.8648
    7      26.2899        0.0659      26.2241         0.3635      25.9265
   10       0.0464       -0.2357       0.2821        -1.1764       1.2228
   19      -0.0230       -0.5251       0.5022        -1.1396       1.1167
 Sum       30.6371       -0.3279      30.9650        -2.3106      32.9477

 Contributions to Isotropic shielding for atom   16 (    31.9944 ppm):
                         Standard Origin              Atomic Origin
 NLMO      Total    Paramagnetic  Diamagnetic   Paramagnetic  Diamagnetic
    8       0.9976        0.0460       0.9515        -0.0941       1.0916
    9       0.7003        0.5351       0.1652        -0.3516       1.0519
   10       0.6403        1.0523      -0.4120        -0.9320       1.5723
   11      26.7739        0.3300      26.4438         0.7333      26.0406
   16      -0.1659       -0.1485      -0.0174        -1.0628       0.8969
   20       0.0481       -0.6162       0.6643        -1.0671       1.1152
   22       0.3146       -0.7426       1.0572        -0.6686       0.9832
   26      -0.3736       -1.5069       1.1333        -0.8906       0.5170
   29      -0.2047       -1.1238       0.9191        -0.8213       0.6165
 Sum       28.7305       -2.1746      30.9051        -5.1547      33.8852

 Contributions to Isotropic shielding for atom   17 (    32.7146 ppm):
                         Standard Origin              Atomic Origin
 NLMO      Total    Paramagnetic  Diamagnetic   Paramagnetic  Diamagnetic
   12       1.3416       -0.0217       1.3632         0.4520       0.8895
   13       1.1225        0.8522       0.2703         0.1454       0.9771
   14      26.4654        0.1182      26.3471         0.3901      26.0753
   15       2.0227        1.4969       0.5258         0.2455       1.7772
   18      -0.0121       -0.7960       0.7838        -1.1298       1.1177
   23       0.0229       -0.6649       0.6879        -0.9934       1.0163
   27      -0.3558       -1.4931       1.1373        -0.9227       0.5669
 Sum       30.6071       -0.5083      31.1155        -1.8129      32.4201

 Contributions to Isotropic shielding for atom   18 (    32.4735 ppm):
                         Standard Origin              Atomic Origin
 NLMO      Total    Paramagnetic  Diamagnetic   Paramagnetic  Diamagnetic
   12       1.3287        0.4949       0.8338         0.4359       0.8928
   13       1.0546        1.3779      -0.3234         0.0435       1.0110
   14       2.1162        1.3531       0.7632         0.3868       1.7294
   15      26.3857        0.0473      26.3384         0.4600      25.9257
   16      -0.0435        0.1138      -0.1573        -1.0198       0.9763
   19       0.0384       -0.5484       0.5868        -1.0836       1.1220
 Sum       30.8801        2.8386      28.0415        -0.7771      31.6572

 Contributions to Isotropic shielding for atom   19 (    32.1229 ppm):
                         Standard Origin              Atomic Origin
 NLMO      Total    Paramagnetic  Diamagnetic   Paramagnetic  Diamagnetic
    8       1.3340        0.6045       0.7296         0.4308       0.9033
   10       0.1471       -0.7316       0.8787        -1.6783       1.8254
   12       1.1389        0.7104       0.4286         0.1790       0.9599
   16       1.0541        1.2354      -0.1813        -0.1044       1.1585
   17      26.1718        0.0633      26.1085         0.4042      25.7677
   30      -0.1463       -1.3739       1.2277        -1.0246       0.8783
   43      -0.5286        0.1674      -0.6959         0.5233      -1.0519
 Sum       29.1713        0.6754      28.4959        -1.2700      30.4412

 Contributions to Isotropic shielding for atom   20 (    32.5782 ppm):
                         Standard Origin              Atomic Origin
 NLMO      Total    Paramagnetic  Diamagnetic   Paramagnetic  Diamagnetic
    1      -0.1869       -0.1290      -0.0579        -1.2640       1.0771
    3       0.0023       -1.1513       1.1536        -0.9424       0.9447
    5       1.1030        1.0467       0.0563         0.2517       0.8513
   13       1.1905        0.6165       0.5740         0.1227       1.0678
   14      -0.0306        0.0195      -0.0501        -1.1698       1.1392
   18      26.4949       -0.0430      26.5379         0.5025      25.9923
   19       2.0281        2.0093       0.0188         0.2530       1.7751
 Sum       30.6013        2.3687      28.2327        -2.2462      32.8475

 Contributions to Isotropic shielding for atom   21 (    32.1653 ppm):
                         Standard Origin              Atomic Origin
 NLMO      Total    Paramagnetic  Diamagnetic   Paramagnetic  Diamagnetic
    2      -0.0606       -1.1946       1.1340        -0.9076       0.8471
    5       1.1015        0.7433       0.3582         0.0498       1.0517
    7      -0.0041       -0.3023       0.2982        -1.0703       1.0662
   13       1.2773        0.3875       0.8898         0.2915       0.9859
   15      -0.0352       -0.0760       0.0407        -1.1266       1.0913
   18       1.9330        2.0090      -0.0760         0.1512       1.7819
   19      26.4603       -0.0052      26.4655         0.4365      26.0238
 Sum       30.6723        1.5618      29.1105        -2.1755      32.8478

 Contributions to Isotropic shielding for atom   22 (    32.6368 ppm):
                         Standard Origin              Atomic Origin
 NLMO      Total    Paramagnetic  Diamagnetic   Paramagnetic  Diamagnetic
    3      -0.0366       -1.3523       1.3157        -0.9164       0.8797
    6       1.1210        0.7938       0.3271         0.2129       0.9081
    9       1.4517        0.1150       1.3367         0.5978       0.8539
   11       0.0335       -0.1590       0.1925        -1.0225       1.0560
   20      26.4514        0.1723      26.2791         0.4424      26.0089
   21       1.8530        1.5142       0.3388         0.0750       1.7780
 Sum       30.8738        1.0839      29.7899        -0.6108      31.4846

 Contributions to Isotropic shielding for atom   23 (    32.8987 ppm):
                         Standard Origin              Atomic Origin
 NLMO      Total    Paramagnetic  Diamagnetic   Paramagnetic  Diamagnetic
    4      -0.0803       -1.5054       1.4251        -0.9781       0.8978
    6       1.0055        1.2869      -0.2814         0.0678       0.9377
    9       1.3465        0.5509       0.7957         0.4839       0.8627
   10      -0.2487        0.2323      -0.4811        -1.6084       1.3597
   20       2.0419        1.4578       0.5841         0.3118       1.7302
   21      26.4736        0.1198      26.3538         0.5001      25.9735
 Sum       30.5385        2.1423      28.3962        -1.2230      31.7615

 Contributions to Isotropic shielding for atom   24 (    35.0922 ppm):
                         Standard Origin              Atomic Origin
 NLMO      Total    Paramagnetic  Diamagnetic   Paramagnetic  Diamagnetic
    9      -0.1863        0.2900      -0.4763        -1.2045       1.0181
   10       1.4058        2.2764      -0.8706         0.7118       0.6941
   11       0.1650        0.2119      -0.0469        -0.8920       1.0570
   21      -0.1611       -0.8466       0.6855        -1.0513       0.8902
   22      23.2425       -0.4383      23.6808        -0.0158      23.2583
   43       4.0384        0.6934       3.3450         2.0950       1.9433
   44       5.5471        2.3953       3.1518         2.3821       3.1650
 Sum       34.0514        4.5822      29.4693         2.0253      32.0261

 Contributions to Isotropic shielding for atom   25 (    32.3956 ppm):
                         Standard Origin              Atomic Origin
 NLMO      Total    Paramagnetic  Diamagnetic   Paramagnetic  Diamagnetic
   16       1.6732        0.0028       1.6704         0.6231       1.0501
   23       0.8853        1.7681      -0.8828        -0.1427       1.0280
   24       0.8844        1.9560      -1.0716        -0.1508       1.0352
   25      26.5428       -0.1366      26.6794         0.4384      26.1043
 Sum       29.9857        3.5902      26.3955         0.7681      29.2176

 Contributions to Isotropic shielding for atom   26 (    32.7831 ppm):
                         Standard Origin              Atomic Origin
 NLMO      Total    Paramagnetic  Diamagnetic   Paramagnetic  Diamagnetic
    8      -0.0986        0.0906      -0.1892        -1.0657       0.9671
   23       1.5425       -0.8268       2.3692         0.5984       0.9441
   26      26.3565        0.2857      26.0708         0.3747      25.9818
   27       2.1081        0.5327       1.5754         0.2929       1.8152
   28       1.9591        2.0412      -0.0821         0.1140       1.8451
 Sum       31.8676        2.1234      29.7442         0.3143      31.5533

 Contributions to Isotropic shielding for atom   27 (    32.6226 ppm):
                         Standard Origin              Atomic Origin
 NLMO      Total    Paramagnetic  Diamagnetic   Paramagnetic  Diamagnetic
   12      -0.0730        0.1397      -0.2127        -1.0480       0.9750
   23       1.5027       -0.6673       2.1701         0.4771       1.0257
   26       2.0976        0.4484       1.6492         0.2622       1.8354
   27      26.3256        0.2285      26.0971         0.3777      25.9479
   28       1.9389        2.1605      -0.2215         0.0638       1.8752
 Sum       31.7919        2.3098      29.4820         0.1327      31.6592

 Contributions to Isotropic shielding for atom   28 (    32.5698 ppm):
                         Standard Origin              Atomic Origin
 NLMO      Total    Paramagnetic  Diamagnetic   Paramagnetic  Diamagnetic
   23       1.2013        0.8107       0.3906         0.1600       1.0413
   24      -0.1767        0.6406      -0.8173        -1.1657       0.9890
   26       2.0036        1.6047       0.3989         0.1410       1.8626
   27       2.0186        1.8454       0.1732         0.1508       1.8678
   28      26.3027       -0.0582      26.3609         0.3998      25.9029
 Sum       31.3495        4.8432      26.5063        -0.3140      31.6635

 Contributions to Isotropic shielding for atom   29 (    32.2886 ppm):
                         Standard Origin              Atomic Origin
 NLMO      Total    Paramagnetic  Diamagnetic   Paramagnetic  Diamagnetic
    8      -0.1026        0.1437      -0.2463        -1.1207       1.0181
   10       0.0300       -0.0393       0.0694        -1.2475       1.2775
   23      -0.1388        0.2135      -0.3523        -1.0415       0.9027
   24       1.5240       -0.9116       2.4356         0.6199       0.9041
   29      26.2377        0.3051      25.9326         0.4029      25.8348
   30       2.0593        0.5460       1.5134         0.2359       1.8235
   31       1.8778        2.0674      -0.1896         0.0397       1.8381
 Sum       31.4874        2.3247      29.1627        -2.1114      33.5987

 Contributions to Isotropic shielding for atom   30 (    32.1567 ppm):
                         Standard Origin              Atomic Origin
 NLMO      Total    Paramagnetic  Diamagnetic   Paramagnetic  Diamagnetic
   10       0.1116       -0.2239       0.3355        -0.9506       1.0622
   24       1.5499       -0.7742       2.3241         0.5565       0.9934
   29       2.0776        0.5281       1.5496         0.2383       1.8393
   30      26.2034        0.3021      25.9013         0.4140      25.7894
   31       1.8720        2.1590      -0.2871         0.0381       1.8339
 Sum       31.8145        1.9911      29.8235         0.2963      31.5182

 Contributions to Isotropic shielding for atom   31 (    32.4581 ppm):
                         Standard Origin              Atomic Origin
 NLMO      Total    Paramagnetic  Diamagnetic   Paramagnetic  Diamagnetic
   23      -0.1691        0.6826      -0.8517        -1.1038       0.9348
   24       1.1647        0.6232       0.5415         0.1723       0.9924
   29       1.9735        1.6945       0.2790         0.1053       1.8682
   30       1.9842        1.8216       0.1626         0.1214       1.8628
   31      26.4660       -0.0031      26.4690         0.4514      26.0145
 Sum       31.4193        4.8189      26.6004        -0.2534      31.6727
 
 1\1\GINC-COMPUTE-6-32\SP\RHF\STO-3G\C10H20O1\YTSAI.IQUIR\03-Aug-2021\0
 \\# rhf/STO-3G nmr pop=nbo\\comment\\0,1\C,0,0.265147498,0.94863502,-3
 .531718511\C,0,-0.16145697,0.528893903,-2.126594932\C,0,0.312149986,-1
 .025514938,-0.177613809\C,0,-0.056180468,1.439985424,0.272043766\C,0,-
 0.498482722,0.014504941,0.633955969\C,0,-0.297657739,1.754802696,-1.20
 7994432\C,0,0.812253777,-0.493409964,-1.530583217\O,0,-0.532498576,-2.
 15502768,-0.415828558\C,0,-0.486700945,-0.220650381,2.17413845\C,0,0.8
 82678711,-0.024473167,2.832585911\C,0,-1.048799301,-1.593374311,2.5558
 42721\H,0,-0.443547692,1.669405096,-3.952982594\H,0,1.257934802,1.4112
 20657,-3.525129184\H,0,0.300866183,0.082726315,-4.201138959\H,0,-1.147
 410501,0.052075302,-2.212158687\H,0,1.174541023,-1.390281171,0.3883964
 7\H,0,1.013393259,1.563060291,0.482729381\H,0,-0.583579437,2.179970939
 ,0.88555002\H,0,-1.553823543,-0.076720901,0.333794093\H,0,0.395861824,
 2.550433417,-1.507840006\H,0,-1.305717383,2.170713366,-1.331846548\H,0
 ,1.789747055,-0.014030983,-1.389365144\H,0,0.959465167,-1.322574131,-2
 .233156146\H,0,0.002554194,-2.833073424,-0.862435404\H,0,-1.160294882,
 0.527412515,2.615135027\H,0,1.624978494,-0.73493326,2.457822602\H,0,1.
 264283313,0.987851419,2.671516247\H,0,0.808557734,-0.168987974,3.91639
 5938\H,0,-0.38015849,-2.405083184,2.252221835\H,0,-2.027296037,-1.7584
 55173,2.093148926\H,0,-1.180808333,-1.665100658,3.641108776\\Version=E
 M64L-G09RevC.01\State=1-A\HF=-459.6141978\RMSD=6.557e-09\Dipole=0.4585
 627,0.0921649,-0.1413727\Quadrupole=-0.2394319,0.4074561,-0.1680242,-2
 .3871596,-0.4639278,1.2957055\PG=C01 [X(C10H20O1)]\\@


 BE NOT THE FIRST BY WHOM THE NEW ARE TRIED,
 NOR YET THE THE LAST TO LAY THE OLD ASIDE.

                          -- ALEXANDER POPE
 Job cpu time:  0 days  0 hours  0 minutes 22.8 seconds.
 File lengths (MBytes):  RWF=      5 Int=      0 D2E=      0 Chk=      1 Scr=      1
 Normal termination of Gaussian 09 at Tue Aug  3 16:36:48 2021.
