 Entering Gaussian System, Link 0=g09
 Input=/home/ytsai.iquir/menthol/03_menthol_M0001_MMFF_NMR_rhf_STO-3G_nbo.gjc
 Output=/home/ytsai.iquir/menthol/03_menthol_M0001_MMFF_NMR_rhf_STO-3G_nbo.log
 Initial command:
 /share/apps/Gaussian09/EM64T.SSE4.2-enabled/g09/l1.exe /tmp/Gau-30883.inp -scrdir=/tmp/
 Entering Link 1 = /share/apps/Gaussian09/EM64T.SSE4.2-enabled/g09/l1.exe PID=     30884.
  
 Copyright (c) 1988,1990,1992,1993,1995,1998,2003,2009,2011,
            Gaussian, Inc.  All Rights Reserved.
  
 This is part of the Gaussian(R) 09 program.  It is based on
 the Gaussian(R) 03 system (copyright 2003, Gaussian, Inc.),
 the Gaussian(R) 98 system (copyright 1998, Gaussian, Inc.),
 the Gaussian(R) 94 system (copyright 1995, Gaussian, Inc.),
 the Gaussian 92(TM) system (copyright 1992, Gaussian, Inc.),
 the Gaussian 90(TM) system (copyright 1990, Gaussian, Inc.),
 the Gaussian 88(TM) system (copyright 1988, Gaussian, Inc.),
 the Gaussian 86(TM) system (copyright 1986, Carnegie Mellon
 University), and the Gaussian 82(TM) system (copyright 1983,
 Carnegie Mellon University). Gaussian is a federally registered
 trademark of Gaussian, Inc.
  
 This software contains proprietary and confidential information,
 including trade secrets, belonging to Gaussian, Inc.
  
 This software is provided under written license and may be
 used, copied, transmitted, or stored only in accord with that
 written license.
  
 The following legend is applicable only to US Government
 contracts under FAR:
  
                    RESTRICTED RIGHTS LEGEND
  
 Use, reproduction and disclosure by the US Government is
 subject to restrictions as set forth in subparagraphs (a)
 and (c) of the Commercial Computer Software - Restricted
 Rights clause in FAR 52.227-19.
  
 Gaussian, Inc.
 340 Quinnipiac St., Bldg. 40, Wallingford CT 06492
  
  
 ---------------------------------------------------------------
 Warning -- This program may not be used in any manner that
 competes with the business of Gaussian, Inc. or will provide
 assistance to any competitor of Gaussian, Inc.  The licensee
 of this program is prohibited from giving any competitor of
 Gaussian, Inc. access to this program.  By using this program,
 the user acknowledges that Gaussian, Inc. is engaged in the
 business of creating and licensing software in the field of
 computational chemistry and represents and warrants to the
 licensee that it is not a competitor of Gaussian, Inc. and that
 it will not use this program in any manner prohibited above.
 ---------------------------------------------------------------
  

 Cite this work as:
 Gaussian 09, Revision C.01,
 M. J. Frisch, G. W. Trucks, H. B. Schlegel, G. E. Scuseria, 
 M. A. Robb, J. R. Cheeseman, G. Scalmani, V. Barone, B. Mennucci, 
 G. A. Petersson, H. Nakatsuji, M. Caricato, X. Li, H. P. Hratchian, 
 A. F. Izmaylov, J. Bloino, G. Zheng, J. L. Sonnenberg, M. Hada, 
 M. Ehara, K. Toyota, R. Fukuda, J. Hasegawa, M. Ishida, T. Nakajima, 
 Y. Honda, O. Kitao, H. Nakai, T. Vreven, J. A. Montgomery, Jr., 
 J. E. Peralta, F. Ogliaro, M. Bearpark, J. J. Heyd, E. Brothers, 
 K. N. Kudin, V. N. Staroverov, T. Keith, R. Kobayashi, J. Normand, 
 K. Raghavachari, A. Rendell, J. C. Burant, S. S. Iyengar, J. Tomasi, 
 M. Cossi, N. Rega, J. M. Millam, M. Klene, J. E. Knox, J. B. Cross, 
 V. Bakken, C. Adamo, J. Jaramillo, R. Gomperts, R. E. Stratmann, 
 O. Yazyev, A. J. Austin, R. Cammi, C. Pomelli, J. W. Ochterski, 
 R. L. Martin, K. Morokuma, V. G. Zakrzewski, G. A. Voth, 
 P. Salvador, J. J. Dannenberg, S. Dapprich, A. D. Daniels, 
 O. Farkas, J. B. Foresman, J. V. Ortiz, J. Cioslowski, 
 and D. J. Fox, Gaussian, Inc., Wallingford CT, 2010.
 
 ******************************************
 Gaussian 09:  EM64L-G09RevC.01 23-Sep-2011
                 3-Aug-2021 
 ******************************************
 %nprocshared=4
 Will use up to    4 processors via shared memory.
 ------------------------
 # rhf/STO-3G nmr pop=nbo
 ------------------------
 1/38=1/1;
 2/12=2,17=6,18=5,40=1/2;
 3/6=3,11=1,16=1,25=1,30=1,116=1/1,2,8,3;
 4//1;
 5/5=2,38=5/2;
 8/6=1,10=90,11=11/1;
 10/13=100,45=16/2;
 6/7=2,8=2,9=2,10=2,28=1,64=1/1,7;
 99/9=1/99;
 -------
 comment
 -------
 Charge =  0 Multiplicity = 1
 Symbolic Z-Matrix:
 6                     2.13897   0.88043  -1.91253 
 6                     0.66009   0.62762  -2.21669 
 6                     0.20253  -1.20485  -0.49122 
 6                    -0.33182   1.2043    0.06944 
 6                    -0.74369  -0.26351   0.28662 
 6                    -0.25357   1.56278  -1.41583 
 6                     0.27278  -0.83477  -1.97604 
 8                    -0.2694   -2.54655  -0.38212 
 6                    -0.88192  -0.65873   1.78856 
 6                    -1.99054   0.13857   2.48604 
 6                     0.41604  -0.53635   2.59166 
 1                     2.77354   0.23428  -2.52851 
 1                     2.40529   1.91858  -2.13825 
 1                     2.389     0.69236  -0.86444 
 1                     0.51312   0.84457  -3.28281 
 1                     1.20871  -1.17662  -0.061 
 1                     0.63707   1.40405   0.53958 
 1                    -1.0556    1.87661   0.54258 
 1                    -1.74641  -0.39252  -0.14856 
 1                     0.07954   2.60184  -1.52453 
 1                    -1.26502   1.51611  -1.84019 
 1                     0.97095  -1.50585  -2.4924 
 1                    -0.70521  -1.02968  -2.43728 
 1                     0.35382  -3.11678  -0.86377 
 1                    -1.18904  -1.71212   1.82894 
 1                    -1.72253   1.19289   2.60574 
 1                    -2.92744   0.08243   1.92224 
 1                    -2.18162  -0.26674   3.48589 
 1                     0.77132   0.49757   2.63724 
 1                     1.21179  -1.15597   2.16925 
 1                     0.25924  -0.87395   3.62239 
 
                          Input orientation:                          
 ---------------------------------------------------------------------
 Center     Atomic      Atomic             Coordinates (Angstroms)
 Number     Number       Type             X           Y           Z
 ---------------------------------------------------------------------
      1          6           0        2.138973    0.880432   -1.912528
      2          6           0        0.660088    0.627615   -2.216692
      3          6           0        0.202533   -1.204853   -0.491220
      4          6           0       -0.331817    1.204299    0.069442
      5          6           0       -0.743688   -0.263514    0.286622
      6          6           0       -0.253567    1.562779   -1.415828
      7          6           0        0.272782   -0.834769   -1.976044
      8          8           0       -0.269404   -2.546550   -0.382118
      9          6           0       -0.881922   -0.658732    1.788557
     10          6           0       -1.990543    0.138567    2.486045
     11          6           0        0.416038   -0.536352    2.591658
     12          1           0        2.773543    0.234280   -2.528512
     13          1           0        2.405293    1.918579   -2.138250
     14          1           0        2.388999    0.692361   -0.864441
     15          1           0        0.513118    0.844566   -3.282813
     16          1           0        1.208707   -1.176616   -0.061004
     17          1           0        0.637073    1.404053    0.539579
     18          1           0       -1.055601    1.876613    0.542579
     19          1           0       -1.746405   -0.392522   -0.148564
     20          1           0        0.079545    2.601842   -1.524525
     21          1           0       -1.265024    1.516110   -1.840188
     22          1           0        0.970954   -1.505850   -2.492401
     23          1           0       -0.705210   -1.029679   -2.437283
     24          1           0        0.353821   -3.116783   -0.863767
     25          1           0       -1.189036   -1.712116    1.828944
     26          1           0       -1.722528    1.192889    2.605737
     27          1           0       -2.927443    0.082435    1.922240
     28          1           0       -2.181621   -0.266736    3.485891
     29          1           0        0.771322    0.497573    2.637245
     30          1           0        1.211788   -1.155969    2.169248
     31          1           0        0.259236   -0.873951    3.622393
 ---------------------------------------------------------------------
                    Distance matrix (angstroms):
                    1          2          3          4          5
     1  C    0.000000
     2  C    1.530860   0.000000
     3  C    3.180932   2.558232   0.000000
     4  C    3.184006   2.557900   2.530590   0.000000
     5  C    3.801921   3.005209   1.544827   1.539896   0.000000
     6  C    2.537036   1.533193   2.953424   1.529921   2.544386
     7  C    2.535471   1.531823   1.531862   2.950822   2.545427
     8  O    4.459444   3.782188   1.426457   3.778448   2.425781
     9  C    5.019249   4.480458   2.582958   2.594004   1.559204
    10  C    6.078709   5.420401   3.934268   3.118834   2.560035
    11  C    5.026278   4.953243   3.161743   3.154477   2.594725
    12  H    1.095275   2.172242   3.582144   4.163359   4.532514
    13  H    1.095275   2.172207   4.161813   3.588297   4.534051
    14  H    1.093786   2.195884   2.918792   2.921825   3.471652
    15  H    2.126587   1.097853   3.477006   3.475764   3.943129
    16  H    2.919757   2.864127   1.094655   2.838836   2.183219
    17  H    2.922791   2.863637   2.838620   1.095299   2.179740
    18  H    4.150329   3.480971   3.485265   1.095321   2.177831
    19  H    4.452880   3.333023   2.139078   2.144393   1.100668
    20  H    2.712018   2.171105   3.946362   2.159416   3.488299
    21  H    3.463598   2.153424   3.372992   2.148206   2.821732
    22  H    2.719350   2.173552   2.164670   3.950337   3.493761
    23  H    3.466016   2.158546   2.154494   3.378424   2.829867
    24  H    4.501599   3.993084   1.953754   4.473558   3.266353
    25  H    5.638755   5.026009   2.752624   3.512285   2.162299
    26  H    5.951767   5.408532   4.364192   2.892576   2.908184
    27  H    6.403968   5.504394   4.156759   3.380638   2.750220
    28  H    7.009027   6.433866   4.730927   4.154256   3.507562
    29  H    4.766286   4.856953   3.606809   2.882705   2.898265
    30  H    4.654835   4.766762   2.845888   3.516073   2.857384
    31  H    6.103001   6.042376   4.127291   4.158357   3.536363
                    6          7          8          9         10
     6  C    0.000000
     7  C    2.517761   0.000000
     8  O    4.237380   2.400993   0.000000
     9  C    3.949433   3.941644   2.941235   0.000000
    10  C    4.502230   5.097084   4.289351   1.533368   0.000000
    11  C    4.573255   4.579681   3.654322   1.531224   2.501660
    12  H    3.488032   2.775227   4.647532   5.726864   6.917475
    13  H    2.778133   3.486379   5.493213   5.733074   6.623890
    14  H    2.836337   2.836575   4.217853   4.422983   5.541916
    15  H    2.142258   2.141394   4.530567   5.470360   6.328228
    16  H    3.387931   2.158748   2.040747   2.838981   4.295622
    17  H    2.154542   3.387239   4.156741   2.849978   3.506358
    18  H    2.139418   3.931877   4.586670   2.830301   2.769834
    19  H    2.767259   2.759055   2.622197   2.137905   2.698671
    20  H    1.096554   3.471527   5.285149   4.746817   5.141756
    21  H    1.097864   2.812461   4.429722   4.247882   4.597857
    22  H    3.474902   1.097460   2.659858   4.741030   6.021586
    23  H    2.822798   1.098726   2.591241   4.245769   5.220732
    24  H    4.750999   2.539945   0.972399   3.821504   5.226336
    25  H    4.704102   4.169483   2.535901   1.097983   2.121137
    26  H    4.297400   5.393086   5.002225   2.191553   1.094419
    27  H    4.525895   5.126336   4.391673   2.179760   1.094901
    28  H    5.575963   6.014940   4.880125   2.173436   1.095662
    29  H    4.314216   4.827641   4.412069   2.188728   2.789201
    30  H    4.731979   4.262435   3.261459   2.185358   3.468589
    31  H    5.619990   5.598591   4.371860   2.170603   2.716245
                   11         12         13         14         15
    11  C    0.000000
    12  H    5.689274   0.000000
    13  H    5.688221   1.767704   0.000000
    14  H    4.164965   1.768288   1.768182   0.000000
    15  H    6.035376   2.459865   2.458425   3.064411   0.000000
    16  H    2.841633   3.244678   3.914972   2.351951   3.866403
    17  H    2.832852   3.917404   3.249940   2.355212   3.865110
    18  H    3.490966   5.176022   4.377944   3.904796   4.261411
    19  H    3.493660   5.146548   5.151372   4.334860   4.057012
    20  H    5.186950   3.724374   2.500522   3.068454   2.523407
    21  H    5.165252   4.292656   3.704328   3.870727   2.386195
    22  H    5.205336   2.505730   3.729540   3.081109   2.521670
    23  H    5.175985   3.702382   4.296146   3.874710   2.389986
    24  H    4.313056   4.456013   5.584596   4.318741   4.644291
    25  H    2.130825   6.203056   6.468367   5.083125   5.963556
    26  H    2.750261   6.891596   6.330162   5.403454   6.308285
    27  H    3.465527   7.234189   6.949610   6.033420   6.285768
    28  H    2.760467   7.808823   7.579337   6.382463   7.369666
    29  H    1.094215   5.546463   5.243517   3.862205   5.935837
    30  H    1.093423   5.142064   5.425112   3.742382   5.849380
    31  H    1.095890   6.736731   6.751948   5.207774   7.120367
                   16         17         18         19         20
    16  H    0.000000
    17  H    2.710594   0.000000
    18  H    3.848846   1.757404   0.000000
    19  H    3.058620   3.063036   2.470599   0.000000
    20  H    4.206382   2.450727   2.467272   3.767436   0.000000
    21  H    4.066401   3.048577   2.418966   2.595418   1.756793
    22  H    2.465079   4.215675   4.975851   3.757275   4.313297
    23  H    3.054729   4.072650   4.177186   2.593895   3.825821
    24  H    2.267047   4.742105   5.375712   3.513412   5.763202
    25  H    3.099651   3.835054   3.814645   2.441828   5.609392
    26  H    4.617164   3.143456   2.273519   3.178092   4.721406
    27  H    4.756701   4.045269   2.937062   2.430774   5.222028
    28  H    4.990258   4.406510   3.811162   3.662581   6.200474
    29  H    3.205427   2.289089   3.102745   3.859009   4.714534
    30  H    2.230350   3.088661   4.121124   3.834842   5.389534
    31  H    3.815825   3.851727   4.333550   4.298196   6.213227
                   21         22         23         24         25
    21  H    0.000000
    22  H    3.815393   0.000000
    23  H    2.674127   1.743360   0.000000
    24  H    5.003774   2.372427   2.820196   0.000000
    25  H    4.887714   4.835507   4.347471   3.406492   0.000000
    26  H    4.481074   6.366243   5.604176   5.909480   3.054026
    27  H    4.356022   6.099935   5.018023   5.363163   2.500235
    28  H    5.690853   6.871253   6.151900   5.785392   2.412431
    29  H    5.023099   5.510610   5.501225   5.049253   3.062528
    30  H    5.417581   4.680961   4.991088   3.712152   2.487782
    31  H    6.154312   6.188421   6.137922   5.016460   2.452850
                   26         27         28         29         30
    26  H    0.000000
    27  H    1.775414   0.000000
    28  H    1.765203   1.767251   0.000000
    29  H    2.589159   3.790044   3.166108   0.000000
    30  H    3.783896   4.327573   3.746934   1.774044   0.000000
    31  H    3.038554   3.736324   2.518953   1.764604   1.760262
                   31
    31  H    0.000000
 Stoichiometry    C10H20O
 Framework group  C1[X(C10H20O)]
 Deg. of freedom    87
 Full point group                 C1      NOp   1
 Largest Abelian subgroup         C1      NOp   1
 Largest concise Abelian subgroup C1      NOp   1
                         Standard orientation:                         
 ---------------------------------------------------------------------
 Center     Atomic      Atomic             Coordinates (Angstroms)
 Number     Number       Type             X           Y           Z
 ---------------------------------------------------------------------
      1          6           0       -2.733698   -0.494721    1.230532
      2          6           0       -2.347831   -0.352427   -0.244050
      3          6           0       -0.278120    1.127245    0.023184
      4          6           0       -0.008201   -1.382550   -0.155585
      5          6           0        0.629651   -0.018313   -0.476958
      6          6           0       -1.431807   -1.492162   -0.705119
      7          6           0       -1.700198    1.005334   -0.533080
      8          8           0        0.264560    2.378433   -0.394915
      9          6           0        2.099718    0.118503    0.024340
     10          6           0        3.029732   -0.889842   -0.660886
     11          6           0        2.257711    0.006768    1.543287
     12          1           0       -3.423818    0.302999    1.525499
     13          1           0       -3.238834   -1.450838    1.404613
     14          1           0       -1.867121   -0.449321    1.896379
     15          1           0       -3.278382   -0.412614   -0.823476
     16          1           0       -0.314692    1.136397    1.117190
     17          1           0       -0.025865   -1.552002    0.926383
     18          1           0        0.586447   -2.192717   -0.591190
     19          1           0        0.679204    0.072634   -1.572743
     20          1           0       -1.860311   -2.460684   -0.420900
     21          1           0       -1.384389   -1.484688   -1.801933
     22          1           0       -2.323053    1.818441   -0.138962
     23          1           0       -1.671752    1.167679   -1.619374
     24          1           0       -0.315294    3.079232   -0.051098
     25          1           0        2.459270    1.114568   -0.265738
     26          1           0        2.828860   -1.916146   -0.338236
     27          1           0        2.923840   -0.843319   -1.749661
     28          1           0        4.075790   -0.669432   -0.420770
     29          1           0        1.958591   -0.978735    1.912905
     30          1           0        1.668768    0.764677    2.067017
     31          1           0        3.304522    0.159390    1.829413
 ---------------------------------------------------------------------
 Rotational constants (GHZ):      1.5551308      0.7693810      0.6498098
 Standard basis: STO-3G (5D, 7F)
 There are    75 symmetry adapted basis functions of A   symmetry.
 Integral buffers will be    131072 words long.
 Raffenetti 1 integral format.
 Two-electron integral symmetry is turned on.
    75 basis functions,   225 primitive gaussians,    75 cartesian basis functions
    44 alpha electrons       44 beta electrons
       nuclear repulsion energy       696.0775489697 Hartrees.
 NAtoms=   31 NActive=   31 NUniq=   31 SFac= 1.00D+00 NAtFMM=   60 NAOKFM=F Big=F
 One-electron integrals computed using PRISM.
 NBasis=    75 RedAO= T  NBF=    75
 NBsUse=    75 1.00D-06 NBFU=    75
 Harris functional with IExCor=  205 diagonalized for initial guess.
 ExpMin= 1.69D-01 ExpMax= 1.31D+02 ExpMxC= 1.31D+02 IAcc=1 IRadAn=         1 AccDes= 0.00D+00
 HarFok:  IExCor=  205 AccDes= 0.00D+00 IRadAn=         1 IDoV= 1
 ScaDFX=  1.000000  1.000000  1.000000  1.000000
 FoFCou: FMM=F IPFlag=           0 FMFlag=      100000 FMFlg1=           0
         NFxFlg=           0 DoJE=T BraDBF=F KetDBF=T FulRan=T
         Omega=  0.000000  0.000000  1.000000  0.000000  0.000000 ICntrl=     500 IOpCl=  0
         NMat0=    1 NMatS0=    1 NMatT0=    0 NMatD0=    1 NMtDS0=    0 NMtDT0=    0
         I1Cent=           4 NGrid=           0.
 Petite list used in FoFCou.
 Initial guess orbital symmetries:
       Occupied  (A) (A) (A) (A) (A) (A) (A) (A) (A) (A) (A) (A)
                 (A) (A) (A) (A) (A) (A) (A) (A) (A) (A) (A) (A)
                 (A) (A) (A) (A) (A) (A) (A) (A) (A) (A) (A) (A)
                 (A) (A) (A) (A) (A) (A) (A) (A)
       Virtual   (A) (A) (A) (A) (A) (A) (A) (A) (A) (A) (A) (A)
                 (A) (A) (A) (A) (A) (A) (A) (A) (A) (A) (A) (A)
                 (A) (A) (A) (A) (A) (A) (A)
 The electronic state of the initial guess is 1-A.
 Requested convergence on RMS density matrix=1.00D-08 within 128 cycles.
 Requested convergence on MAX density matrix=1.00D-06.
 Requested convergence on             energy=1.00D-06.
 No special actions if energy rises.
 Keep R1 ints in memory in canonical form, NReq=4898789.
 SCF Done:  E(RHF) =  -459.620595177     A.U. after   10 cycles
             Convg  =    0.7474D-08             -V/T =  2.0090
 Range of M.O.s used for correlation:     1    75
 NBasis=    75 NAE=    44 NBE=    44 NFC=     0 NFV=     0
 NROrb=     75 NOA=    44 NOB=    44 NVA=    31 NVB=    31
          Differentiating once with respect to magnetic field using GIAOs.
          Electric field/nuclear overlap derivatives assumed to be zero.
          Keep R3 ints in memory in canonical form, NReq=4863575.
 FoFCou: FMM=F IPFlag=           0 FMFlag=           0 FMFlg1=           0
         NFxFlg=           0 DoJE=F BraDBF=F KetDBF=T FulRan=T
         Omega=  0.000000  0.000000  1.000000  0.000000  0.000000 ICntrl=    6100 IOpCl=  0
         NMat0=    1 NMatS0=    1 NMatT0=    0 NMatD0=    1 NMtDS0=    0 NMtDT0=    0
         I1Cent=           7 NGrid=          31.
 Symmetry not used in FoFCou.
          There are     3 degrees of freedom in the 1st order CPHF.  IDoFFX=0.
      3 vectors produced by pass  0 Test12= 4.55D-14 3.33D-08 XBig12= 6.85D+00 4.99D-01.
 AX will form     3 AO Fock derivatives at one time.
      3 vectors produced by pass  1 Test12= 4.55D-14 3.33D-08 XBig12= 1.11D-02 1.50D-02.
      3 vectors produced by pass  2 Test12= 4.55D-14 3.33D-08 XBig12= 1.00D-04 2.49D-03.
      3 vectors produced by pass  3 Test12= 4.55D-14 3.33D-08 XBig12= 1.87D-06 4.89D-04.
      3 vectors produced by pass  4 Test12= 4.55D-14 3.33D-08 XBig12= 1.78D-08 2.58D-05.
      3 vectors produced by pass  5 Test12= 4.55D-14 3.33D-08 XBig12= 2.02D-10 1.77D-06.
      3 vectors produced by pass  6 Test12= 4.55D-14 3.33D-08 XBig12= 2.22D-12 2.10D-07.
 Inverted reduced A of dimension    21 with in-core refinement.
 Calculating GIAO nuclear magnetic shielding tensors.
 SCF GIAO Magnetic shielding tensor (ppm):
      1  C    Isotropic =   223.0211   Anisotropy =    24.1729
   XX=   215.9366   YX=     0.4097   ZX=    -9.3544
   XY=     0.6416   YY=   219.9850   ZY=    -2.0110
   XZ=   -13.5376   YZ=    -2.6285   ZZ=   233.1417
   Eigenvalues:   210.1875   219.7395   239.1364
      2  C    Isotropic =   216.3169   Anisotropy =     4.0771
   XX=   216.0899   YX=    -0.0101   ZX=    -3.9055
   XY=    -0.4756   YY=   218.3108   ZY=    -0.2478
   XZ=    -3.3289   YZ=    -0.0040   ZZ=   214.5499
   Eigenvalues:   211.6123   218.3034   219.0350
      3  C    Isotropic =   190.2355   Anisotropy =    42.7564
   XX=   185.2041   YX=     8.1040   ZX=    -4.6876
   XY=     9.0530   YY=   213.5114   ZY=    -9.3874
   XZ=    -3.6209   YZ=   -12.1746   ZZ=   171.9909
   Eigenvalues:   169.0781   182.8886   218.7397
      4  C    Isotropic =   221.0463   Anisotropy =    14.1584
   XX=   226.6314   YX=     5.1608   ZX=     2.7223
   XY=     3.9742   YY=   224.9845   ZY=    -1.8644
   XZ=     2.3080   YZ=    -1.6361   ZZ=   211.5229
   Eigenvalues:   210.6585   221.9951   230.4852
      5  C    Isotropic =   208.9921   Anisotropy =    14.7652
   XX=   217.4633   YX=    -6.0465   ZX=     2.5669
   XY=    -0.0684   YY=   206.7547   ZY=     1.3906
   XZ=     4.4051   YZ=     1.8067   ZZ=   202.7584
   Eigenvalues:   201.0374   207.1034   218.8356
      6  C    Isotropic =   216.6448   Anisotropy =    11.8173
   XX=   221.8496   YX=    -3.1448   ZX=    -2.5440
   XY=    -3.3529   YY=   217.2362   ZY=     6.2720
   XZ=    -0.8196   YZ=     2.6206   ZZ=   210.8486
   Eigenvalues:   208.5679   216.8435   224.5230
      7  C    Isotropic =   214.5011   Anisotropy =    16.3859
   XX=   221.4642   YX=     8.0780   ZX=    -0.2862
   XY=     3.9154   YY=   216.3449   ZY=    -4.1145
   XZ=     2.4256   YZ=     1.1635   ZZ=   205.6942
   Eigenvalues:   205.2305   212.8478   225.4250
      8  O    Isotropic =   356.3092   Anisotropy =    88.1673
   XX=   366.0753   YX=   -50.1195   ZX=    -7.2819
   XY=   -26.7904   YY=   369.0846   ZY=    18.1612
   XZ=   -21.4532   YZ=    29.1703   ZZ=   333.7677
   Eigenvalues:   320.7988   333.0414   415.0874
      9  C    Isotropic =   214.6977   Anisotropy =    14.6204
   XX=   223.8898   YX=    -1.5090   ZX=     1.4229
   XY=    -2.2464   YY=   206.3437   ZY=     3.2445
   XZ=     3.1036   YZ=     4.1040   ZZ=   213.8596
   Eigenvalues:   204.4960   215.1524   224.4446
     10  C    Isotropic =   221.2593   Anisotropy =    26.6403
   XX=   224.3823   YX=    -9.4751   ZX=    -8.3463
   XY=   -11.9022   YY=   217.7391   ZY=    10.0954
   XZ=    -5.4894   YZ=     7.3629   ZZ=   221.6565
   Eigenvalues:   208.7897   215.9687   239.0195
     11  C    Isotropic =   224.3807   Anisotropy =    20.3702
   XX=   219.6104   YX=    -0.1258   ZX=     3.2448
   XY=    -0.6796   YY=   215.8456   ZY=    -0.8677
   XZ=     1.1631   YZ=     1.9077   ZZ=   237.6861
   Eigenvalues:   215.7759   219.4053   237.9609
     12  H    Isotropic =    32.6987   Anisotropy =    14.0658
   XX=    34.5634   YX=    -4.7812   ZX=    -5.6617
   XY=    -4.9795   YY=    32.1540   ZY=     2.5182
   XZ=    -5.9507   YZ=     2.8881   ZZ=    31.3789
   Eigenvalues:    26.7275    29.2928    42.0760
     13  H    Isotropic =    32.6399   Anisotropy =    14.2756
   XX=    32.2680   YX=     5.5182   ZX=    -4.3278
   XY=     5.7903   YY=    35.2183   ZY=    -3.2293
   XZ=    -4.4767   YZ=    -3.7668   ZZ=    30.4335
   Eigenvalues:    26.6635    29.0994    42.1570
     14  H    Isotropic =    32.7033   Anisotropy =     7.8860
   XX=    34.5714   YX=     0.6694   ZX=     1.8899
   XY=     0.7140   YY=    26.6807   ZY=    -0.5890
   XZ=     1.9698   YZ=    -0.6184   ZZ=    36.8578
   Eigenvalues:    26.5606    33.5886    37.9607
     15  H    Isotropic =    32.4201   Anisotropy =    15.3577
   XX=    39.2325   YX=     1.0138   ZX=     6.2869
   XY=     0.9219   YY=    27.0261   ZY=     0.4564
   XZ=     6.1799   YZ=     0.4249   ZZ=    31.0015
   Eigenvalues:    26.9470    27.6546    42.6585
     16  H    Isotropic =    32.1701   Anisotropy =     5.8489
   XX=    31.4894   YX=     0.1458   ZX=    -0.2088
   XY=    -0.1746   YY=    29.2481   ZY=     0.9505
   XZ=     0.8471   YZ=     1.7868   ZZ=    35.7730
   Eigenvalues:    28.9703    31.4707    36.0694
     17  H    Isotropic =    32.8834   Anisotropy =     8.7876
   XX=    32.6205   YX=     1.0596   ZX=     1.3818
   XY=     0.5931   YY=    29.5657   ZY=    -4.2188
   XZ=     1.5251   YZ=    -4.5448   ZZ=    36.4639
   Eigenvalues:    27.0901    32.8183    38.7418
     18  H    Isotropic =    32.5077   Anisotropy =    13.0975
   XX=    35.0947   YX=    -3.7780   ZX=    -1.4317
   XY=    -4.0799   YY=    37.0639   ZY=     4.1604
   XZ=    -1.4636   YZ=     4.1546   ZZ=    25.3646
   Eigenvalues:    24.0342    32.2496    41.2394
     19  H    Isotropic =    32.3521   Anisotropy =     9.3846
   XX=    31.6884   YX=    -0.5436   ZX=    -1.2174
   XY=    -0.7699   YY=    27.1025   ZY=    -0.8093
   XZ=    -1.5978   YZ=    -1.0686   ZZ=    38.2655
   Eigenvalues:    26.8956    31.5523    38.6085
     20  H    Isotropic =    32.5121   Anisotropy =    14.4165
   XX=    31.2814   YX=     4.8229   ZX=    -0.6917
   XY=     4.9560   YY=    39.9110   ZY=     0.3171
   XZ=    -0.9876   YZ=    -0.2255   ZZ=    26.3439
   Eigenvalues:    26.1293    29.2838    42.1231
     21  H    Isotropic =    32.4989   Anisotropy =    13.2674
   XX=    29.2291   YX=     0.1688   ZX=     1.1629
   XY=     0.1568   YY=    28.5157   ZY=     4.3378
   XZ=     1.3384   YZ=     4.2915   ZZ=    39.7520
   Eigenvalues:    27.0208    29.1321    41.3439
     22  H    Isotropic =    32.8245   Anisotropy =    13.1006
   XX=    34.1278   YX=    -5.1583   ZX=    -1.4261
   XY=    -5.4351   YY=    37.3426   ZY=     1.1503
   XZ=    -2.1545   YZ=     1.2828   ZZ=    27.0032
   Eigenvalues:    26.5784    30.3369    41.5583
     23  H    Isotropic =    32.2310   Anisotropy =    12.2419
   XX=    29.0305   YX=    -0.0398   ZX=     2.4941
   XY=    -0.1620   YY=    29.7260   ZY=    -4.5163
   XZ=     2.4202   YZ=    -4.5008   ZZ=    37.9365
   Eigenvalues:    27.1729    29.1279    40.3923
     24  H    Isotropic =    35.0549   Anisotropy =    19.3766
   XX=    32.3736   YX=    -5.2314   ZX=    -3.6869
   XY=    -3.7670   YY=    45.8775   ZY=     2.5346
   XZ=    -3.3017   YZ=     3.4917   ZZ=    26.9136
   Eigenvalues:    25.1783    32.0138    47.9726
     25  H    Isotropic =    31.7750   Anisotropy =    11.6324
   XX=    32.6305   YX=     3.4051   ZX=    -1.4315
   XY=     3.2857   YY=    36.8377   ZY=    -3.2608
   XZ=    -1.2551   YZ=    -3.0134   ZZ=    25.8568
   Eigenvalues:    24.9946    30.8005    39.5300
     26  H    Isotropic =    32.5532   Anisotropy =    10.0413
   XX=    31.6347   YX=    -1.9114   ZX=    -1.1862
   XY=    -2.0052   YY=    38.7369   ZY=    -0.5267
   XZ=    -1.0362   YZ=    -0.6093   ZZ=    27.2880
   Eigenvalues:    26.9290    31.4832    39.2474
     27  H    Isotropic =    32.4675   Anisotropy =    12.6462
   XX=    30.9194   YX=    -1.7032   ZX=    -3.0729
   XY=    -1.6703   YY=    26.8415   ZY=     2.0550
   XZ=    -2.8323   YZ=     1.5410   ZZ=    39.6415
   Eigenvalues:    26.1919    30.3122    40.8983
     28  H    Isotropic =    32.3765   Anisotropy =    14.7170
   XX=    42.1735   YX=    -0.2140   ZX=    -0.2734
   XY=    -0.5955   YY=    27.0378   ZY=     1.1557
   XZ=    -0.1027   YZ=     1.2922   ZZ=    27.9181
   Eigenvalues:    26.1741    28.7675    42.1878
     29  H    Isotropic =    32.7874   Anisotropy =     9.7967
   XX=    30.1036   YX=     1.9072   ZX=     1.0809
   XY=     1.6764   YY=    34.3822   ZY=    -5.1025
   XZ=     1.1946   YZ=    -5.2037   ZZ=    33.8765
   Eigenvalues:    27.3925    31.6512    39.3186
     30  H    Isotropic =    32.4712   Anisotropy =    10.5162
   XX=    31.4648   YX=    -3.7084   ZX=    -0.2858
   XY=    -3.7257   YY=    30.8900   ZY=     5.2607
   XZ=    -0.2129   YZ=     5.5222   ZZ=    35.0589
   Eigenvalues:    25.6210    32.3106    39.4821
     31  H    Isotropic =    32.5284   Anisotropy =    14.7481
   XX=    38.6104   YX=     1.5999   ZX=     5.7375
   XY=     1.3868   YY=    26.6912   ZY=     1.5399
   XZ=     5.9381   YZ=     1.5330   ZZ=    32.2837
   Eigenvalues:    26.2969    28.9279    42.3605
 End of Minotr Frequency-dependent properties file   721 does not exist.
 End of Minotr Frequency-dependent properties file   722 does not exist.

 **********************************************************************

            Population analysis using the SCF density.

 **********************************************************************

 Orbital symmetries:
       Occupied  (A) (A) (A) (A) (A) (A) (A) (A) (A) (A) (A) (A)
                 (A) (A) (A) (A) (A) (A) (A) (A) (A) (A) (A) (A)
                 (A) (A) (A) (A) (A) (A) (A) (A) (A) (A) (A) (A)
                 (A) (A) (A) (A) (A) (A) (A) (A)
       Virtual   (A) (A) (A) (A) (A) (A) (A) (A) (A) (A) (A) (A)
                 (A) (A) (A) (A) (A) (A) (A) (A) (A) (A) (A) (A)
                 (A) (A) (A) (A) (A) (A) (A)
 The electronic state is 1-A.
 Alpha  occ. eigenvalues --  -20.23628 -11.08350 -11.04869 -11.04196 -11.04029
 Alpha  occ. eigenvalues --  -11.03708 -11.03694 -11.03615 -11.03323 -11.02601
 Alpha  occ. eigenvalues --  -11.02567  -1.27712  -1.08235  -1.03477  -0.96484
 Alpha  occ. eigenvalues --   -0.94607  -0.88530  -0.88387  -0.80500  -0.78042
 Alpha  occ. eigenvalues --   -0.72168  -0.69376  -0.61908  -0.61255  -0.58888
 Alpha  occ. eigenvalues --   -0.57280  -0.56382  -0.55581  -0.53926  -0.51559
 Alpha  occ. eigenvalues --   -0.51288  -0.49819  -0.49017  -0.48069  -0.46609
 Alpha  occ. eigenvalues --   -0.45326  -0.43992  -0.43136  -0.41719  -0.41047
 Alpha  occ. eigenvalues --   -0.39692  -0.38330  -0.36501  -0.33045
 Alpha virt. eigenvalues --    0.53448   0.55190   0.57368   0.60277   0.60899
 Alpha virt. eigenvalues --    0.62043   0.63557   0.65654   0.65788   0.66503
 Alpha virt. eigenvalues --    0.68359   0.68979   0.69727   0.71338   0.72127
 Alpha virt. eigenvalues --    0.72736   0.73834   0.74133   0.76256   0.76580
 Alpha virt. eigenvalues --    0.77479   0.78375   0.79246   0.79943   0.80319
 Alpha virt. eigenvalues --    0.81292   0.82185   0.83002   0.83804   0.84457
 Alpha virt. eigenvalues --    0.84867
          Condensed to atoms (all electrons):
              1          2          3          4          5          6
     1  C    4.743776   0.364359  -0.001448  -0.001424   0.000079  -0.023813
     2  C    0.364359   4.742608  -0.019034  -0.021458  -0.002998   0.363178
     3  C   -0.001448  -0.019034   4.743915  -0.021658   0.358796  -0.004004
     4  C   -0.001424  -0.021458  -0.021658   4.755756   0.361979   0.362988
     5  C    0.000079  -0.002998   0.358796   0.361979   4.771127  -0.021190
     6  C   -0.023813   0.363178  -0.004004   0.362988  -0.021190   4.754723
     7  C   -0.024002   0.361279   0.358776  -0.003759  -0.022164  -0.023939
     8  O    0.000001   0.000250   0.267450   0.000211  -0.016883   0.000002
     9  C    0.000000   0.000002  -0.019433  -0.019419   0.358418   0.000594
    10  C    0.000000   0.000000   0.000606  -0.002024  -0.021889   0.000008
    11  C    0.000000   0.000000  -0.001836  -0.002011  -0.020447   0.000006
    12  H    0.382283  -0.020329   0.000019   0.000005  -0.000002   0.001253
    13  H    0.382432  -0.020230   0.000009   0.000028  -0.000001  -0.002254
    14  H    0.382557  -0.019898  -0.000431  -0.000380   0.000045  -0.001674
    15  H   -0.025118   0.383065   0.001184   0.001229   0.000006  -0.023187
    16  H   -0.000491  -0.000858   0.375213  -0.001293  -0.023731   0.000114
    17  H   -0.000446  -0.001355  -0.001702   0.381390  -0.022086  -0.022905
    18  H    0.000009   0.001238   0.001160   0.383553  -0.020474  -0.022270
    19  H   -0.000001   0.000100  -0.024605  -0.023804   0.378891  -0.001987
    20  H   -0.003058  -0.021323   0.000017  -0.021581   0.001197   0.382590
    21  H    0.001305  -0.022590   0.000035  -0.023386  -0.001762   0.381377
    22  H   -0.003055  -0.020669  -0.021982   0.000010   0.001127   0.001230
    23  H    0.001294  -0.021317  -0.022792   0.000089  -0.001953  -0.001349
    24  H    0.000002   0.000004  -0.040863  -0.000037   0.002446   0.000000
    25  H    0.000000  -0.000001  -0.002356   0.001078  -0.022573  -0.000013
    26  H    0.000000   0.000000  -0.000005  -0.000709  -0.001186   0.000001
    27  H    0.000000   0.000000   0.000018  -0.000012  -0.002590  -0.000003
    28  H    0.000000   0.000000  -0.000013   0.000020   0.001156   0.000000
    29  H    0.000000   0.000000   0.000036  -0.000610  -0.001488   0.000000
    30  H    0.000000   0.000000  -0.000854   0.000023  -0.001582  -0.000002
    31  H    0.000000   0.000000   0.000018   0.000017   0.001114   0.000000
              7          8          9         10         11         12
     1  C   -0.024002   0.000001   0.000000   0.000000   0.000000   0.382283
     2  C    0.361279   0.000250   0.000002   0.000000   0.000000  -0.020329
     3  C    0.358776   0.267450  -0.019433   0.000606  -0.001836   0.000019
     4  C   -0.003759   0.000211  -0.019419  -0.002024  -0.002011   0.000005
     5  C   -0.022164  -0.016883   0.358418  -0.021889  -0.020447  -0.000002
     6  C   -0.023939   0.000002   0.000594   0.000008   0.000006   0.001253
     7  C    4.784612  -0.020072   0.000576  -0.000004   0.000007  -0.002283
     8  O   -0.020072   7.846966  -0.001054   0.000001   0.000026   0.000000
     9  C    0.000576  -0.001054   4.739346   0.364139   0.364160   0.000000
    10  C   -0.000004   0.000001   0.364139   4.743518  -0.026291   0.000000
    11  C    0.000007   0.000026   0.364160  -0.026291   4.742599   0.000000
    12  H   -0.002283   0.000000   0.000000   0.000000   0.000000   0.631877
    13  H    0.001256   0.000000   0.000000   0.000000   0.000000  -0.021509
    14  H   -0.001626   0.000000   0.000002   0.000000   0.000001  -0.022065
    15  H   -0.023270  -0.000005   0.000001   0.000000   0.000000  -0.002467
    16  H   -0.027095  -0.019050  -0.001847  -0.000001  -0.000759   0.000044
    17  H    0.000086   0.000001  -0.001704   0.000042  -0.000622  -0.000003
    18  H    0.000008  -0.000004  -0.001578  -0.000816   0.000037   0.000000
    19  H   -0.002167  -0.000585  -0.023969  -0.002891   0.001142   0.000000
    20  H    0.001232   0.000000  -0.000013   0.000000   0.000000   0.000034
    21  H   -0.001343  -0.000001   0.000003   0.000001   0.000000  -0.000035
    22  H    0.380681  -0.001024  -0.000013   0.000000   0.000000   0.000187
    23  H    0.380242  -0.000862   0.000002   0.000000  -0.000001   0.000027
    24  H   -0.003041   0.257773   0.000053   0.000000  -0.000004   0.000000
    25  H    0.000014   0.000497   0.382432  -0.024752  -0.024435   0.000000
    26  H    0.000000   0.000000  -0.020313   0.382214  -0.002620   0.000000
    27  H    0.000000   0.000000  -0.020116   0.382142   0.001320   0.000000
    28  H    0.000000   0.000000  -0.019911   0.382566  -0.001957   0.000000
    29  H   -0.000002   0.000000  -0.020487  -0.002224   0.382125   0.000000
    30  H    0.000002   0.000036  -0.019635   0.001332   0.382659   0.000000
    31  H    0.000000  -0.000001  -0.019863  -0.002559   0.382390   0.000000
             13         14         15         16         17         18
     1  C    0.382432   0.382557  -0.025118  -0.000491  -0.000446   0.000009
     2  C   -0.020230  -0.019898   0.383065  -0.000858  -0.001355   0.001238
     3  C    0.000009  -0.000431   0.001184   0.375213  -0.001702   0.001160
     4  C    0.000028  -0.000380   0.001229  -0.001293   0.381390   0.383553
     5  C   -0.000001   0.000045   0.000006  -0.023731  -0.022086  -0.020474
     6  C   -0.002254  -0.001674  -0.023187   0.000114  -0.022905  -0.022270
     7  C    0.001256  -0.001626  -0.023270  -0.027095   0.000086   0.000008
     8  O    0.000000   0.000000  -0.000005  -0.019050   0.000001  -0.000004
     9  C    0.000000   0.000002   0.000001  -0.001847  -0.001704  -0.001578
    10  C    0.000000   0.000000   0.000000  -0.000001   0.000042  -0.000816
    11  C    0.000000   0.000001   0.000000  -0.000759  -0.000622   0.000037
    12  H   -0.021509  -0.022065  -0.002467   0.000044  -0.000003   0.000000
    13  H    0.629830  -0.021933  -0.002497   0.000001   0.000049  -0.000004
    14  H   -0.021933   0.631362   0.001916  -0.000589  -0.000540  -0.000003
    15  H   -0.002497   0.001916   0.649293  -0.000019  -0.000007  -0.000031
    16  H    0.000001  -0.000589  -0.000019   0.663562   0.000246  -0.000006
    17  H    0.000049  -0.000540  -0.000007   0.000246   0.643590  -0.023532
    18  H   -0.000004  -0.000003  -0.000031  -0.000006  -0.023532   0.636795
    19  H    0.000000  -0.000003  -0.000017   0.001859   0.001888  -0.002561
    20  H    0.000189   0.000019  -0.001334  -0.000007  -0.002767  -0.001886
    21  H    0.000029  -0.000002  -0.003601   0.000002   0.001981  -0.003137
    22  H    0.000035   0.000016  -0.001390  -0.002716  -0.000008   0.000002
    23  H   -0.000034  -0.000003  -0.003594   0.001921   0.000003  -0.000010
    24  H    0.000000   0.000000  -0.000001  -0.003440   0.000000   0.000001
    25  H    0.000000   0.000000   0.000000   0.000049  -0.000001   0.000007
    26  H    0.000000   0.000000   0.000000   0.000001   0.000039  -0.000830
    27  H    0.000000   0.000000   0.000000   0.000000   0.000005   0.000020
    28  H    0.000000   0.000000   0.000000   0.000000  -0.000004   0.000006
    29  H    0.000000  -0.000001   0.000000   0.000032  -0.000719   0.000033
    30  H    0.000000  -0.000001   0.000000  -0.000745   0.000029   0.000003
    31  H    0.000000   0.000000   0.000000  -0.000002   0.000000  -0.000004
             19         20         21         22         23         24
     1  C   -0.000001  -0.003058   0.001305  -0.003055   0.001294   0.000002
     2  C    0.000100  -0.021323  -0.022590  -0.020669  -0.021317   0.000004
     3  C   -0.024605   0.000017   0.000035  -0.021982  -0.022792  -0.040863
     4  C   -0.023804  -0.021581  -0.023386   0.000010   0.000089  -0.000037
     5  C    0.378891   0.001197  -0.001762   0.001127  -0.001953   0.002446
     6  C   -0.001987   0.382590   0.381377   0.001230  -0.001349   0.000000
     7  C   -0.002167   0.001232  -0.001343   0.380681   0.380242  -0.003041
     8  O   -0.000585   0.000000  -0.000001  -0.001024  -0.000862   0.257773
     9  C   -0.023969  -0.000013   0.000003  -0.000013   0.000002   0.000053
    10  C   -0.002891   0.000000   0.000001   0.000000   0.000000   0.000000
    11  C    0.001142   0.000000   0.000000   0.000000  -0.000001  -0.000004
    12  H    0.000000   0.000034  -0.000035   0.000187   0.000027   0.000000
    13  H    0.000000   0.000189   0.000029   0.000035  -0.000034   0.000000
    14  H   -0.000003   0.000019  -0.000002   0.000016  -0.000003   0.000000
    15  H   -0.000017  -0.001334  -0.003601  -0.001390  -0.003594  -0.000001
    16  H    0.001859  -0.000007   0.000002  -0.002716   0.001921  -0.003440
    17  H    0.001888  -0.002767   0.001981  -0.000008   0.000003   0.000000
    18  H   -0.002561  -0.001886  -0.003137   0.000002  -0.000010   0.000001
    19  H    0.649039   0.000009   0.000335   0.000003   0.000247   0.000012
    20  H    0.000009   0.639371  -0.023318  -0.000033   0.000007   0.000000
    21  H    0.000335  -0.023318   0.645656   0.000003   0.000176   0.000000
    22  H    0.000003  -0.000033   0.000003   0.647504  -0.024613   0.000513
    23  H    0.000247   0.000007   0.000176  -0.024613   0.637954  -0.000033
    24  H    0.000012   0.000000   0.000000   0.000513  -0.000033   0.610682
    25  H   -0.002222   0.000000   0.000000  -0.000001   0.000002  -0.000058
    26  H    0.000027   0.000001   0.000001   0.000000   0.000000   0.000000
    27  H    0.000227   0.000000   0.000000   0.000000   0.000000   0.000000
    28  H    0.000027   0.000000   0.000000   0.000000   0.000000   0.000000
    29  H   -0.000002   0.000001   0.000000   0.000000   0.000000   0.000000
    30  H    0.000007   0.000000   0.000000   0.000001   0.000000  -0.000002
    31  H   -0.000028   0.000000   0.000000   0.000000   0.000000   0.000000
             25         26         27         28         29         30
     1  C    0.000000   0.000000   0.000000   0.000000   0.000000   0.000000
     2  C   -0.000001   0.000000   0.000000   0.000000   0.000000   0.000000
     3  C   -0.002356  -0.000005   0.000018  -0.000013   0.000036  -0.000854
     4  C    0.001078  -0.000709  -0.000012   0.000020  -0.000610   0.000023
     5  C   -0.022573  -0.001186  -0.002590   0.001156  -0.001488  -0.001582
     6  C   -0.000013   0.000001  -0.000003   0.000000   0.000000  -0.000002
     7  C    0.000014   0.000000   0.000000   0.000000  -0.000002   0.000002
     8  O    0.000497   0.000000   0.000000   0.000000   0.000000   0.000036
     9  C    0.382432  -0.020313  -0.020116  -0.019911  -0.020487  -0.019635
    10  C   -0.024752   0.382214   0.382142   0.382566  -0.002224   0.001332
    11  C   -0.024435  -0.002620   0.001320  -0.001957   0.382125   0.382659
    12  H    0.000000   0.000000   0.000000   0.000000   0.000000   0.000000
    13  H    0.000000   0.000000   0.000000   0.000000   0.000000   0.000000
    14  H    0.000000   0.000000   0.000000   0.000000  -0.000001  -0.000001
    15  H    0.000000   0.000000   0.000000   0.000000   0.000000   0.000000
    16  H    0.000049   0.000001   0.000000   0.000000   0.000032  -0.000745
    17  H   -0.000001   0.000039   0.000005  -0.000004  -0.000719   0.000029
    18  H    0.000007  -0.000830   0.000020   0.000006   0.000033   0.000003
    19  H   -0.002222   0.000027   0.000227   0.000027  -0.000002   0.000007
    20  H    0.000000   0.000001   0.000000   0.000000   0.000001   0.000000
    21  H    0.000000   0.000001   0.000000   0.000000   0.000000   0.000000
    22  H   -0.000001   0.000000   0.000000   0.000000   0.000000   0.000001
    23  H    0.000002   0.000000   0.000000   0.000000   0.000000   0.000000
    24  H   -0.000058   0.000000   0.000000   0.000000   0.000000  -0.000002
    25  H    0.637004   0.001923  -0.001789  -0.003194   0.001901  -0.002231
    26  H    0.001923   0.633594  -0.021703  -0.022287   0.000393   0.000016
    27  H   -0.001789  -0.021703   0.631307  -0.021636   0.000009  -0.000037
    28  H   -0.003194  -0.022287  -0.021636   0.631596  -0.000008   0.000020
    29  H    0.001901   0.000393   0.000009  -0.000008   0.633862  -0.021894
    30  H   -0.002231   0.000016  -0.000037   0.000020  -0.021894   0.631674
    31  H   -0.002509  -0.000027   0.000033   0.000090  -0.022100  -0.022026
             31
     1  C    0.000000
     2  C    0.000000
     3  C    0.000018
     4  C    0.000017
     5  C    0.001114
     6  C    0.000000
     7  C    0.000000
     8  O   -0.000001
     9  C   -0.019863
    10  C   -0.002559
    11  C    0.382390
    12  H    0.000000
    13  H    0.000000
    14  H    0.000000
    15  H    0.000000
    16  H   -0.000002
    17  H    0.000000
    18  H   -0.000004
    19  H   -0.000028
    20  H    0.000000
    21  H    0.000000
    22  H    0.000000
    23  H    0.000000
    24  H    0.000000
    25  H   -0.002509
    26  H   -0.000027
    27  H    0.000033
    28  H    0.000090
    29  H   -0.022100
    30  H   -0.022026
    31  H    0.631308
 Mulliken atomic charges:
              1
     1  C   -0.175240
     2  C   -0.024023
     3  C    0.075764
     4  C   -0.104813
     5  C   -0.031381
     6  C   -0.099475
     7  C   -0.114005
     8  O   -0.313672
     9  C   -0.020372
    10  C   -0.173121
    11  C   -0.175488
    12  H    0.052963
    13  H    0.054604
    14  H    0.053230
    15  H    0.049845
    16  H    0.039603
    17  H    0.049050
    18  H    0.054272
    19  H    0.051032
    20  H    0.050651
    21  H    0.048272
    22  H    0.044190
    23  H    0.054597
    24  H    0.175992
    25  H    0.061226
    26  H    0.051471
    27  H    0.052804
    28  H    0.053528
    29  H    0.051145
    30  H    0.053204
    31  H    0.054149
 Sum of Mulliken atomic charges =   0.00000
 Mulliken charges with hydrogens summed into heavy atoms:
              1
     1  C   -0.014443
     2  C    0.025822
     3  C    0.115367
     4  C   -0.001491
     5  C    0.019651
     6  C   -0.000552
     7  C   -0.015218
     8  O   -0.137680
     9  C    0.040854
    10  C   -0.015318
    11  C   -0.016991
 Sum of Mulliken charges with hydrogens summed into heavy atoms =   0.00000
 Electronic spatial extent (au):  <R**2>=           2046.5569
 Charge=              0.0000 electrons
 Dipole moment (field-independent basis, Debye):
    X=             -1.1558    Y=             -0.2396    Z=              0.6037  Tot=              1.3258
 Quadrupole moment (field-independent basis, Debye-Ang):
   XX=            -67.7858   YY=            -66.8981   ZZ=            -68.0704
   XY=             -2.8363   XZ=              0.4062   YZ=              2.0162
 Traceless Quadrupole moment (field-independent basis, Debye-Ang):
   XX=             -0.2010   YY=              0.6867   ZZ=             -0.4856
   XY=             -2.8363   XZ=              0.4062   YZ=              2.0162
 Octapole moment (field-independent basis, Debye-Ang**2):
  XXX=              2.2693  YYY=             20.4383  ZZZ=             -5.0156  XYY=             -9.0766
  XXY=              6.1760  XXZ=             -0.7710  XZZ=              0.0180  YZZ=              3.8271
  YYZ=              5.4976  XYZ=              0.3366
 Hexadecapole moment (field-independent basis, Debye-Ang**3):
 XXXX=          -1608.1620 YYYY=           -564.5995 ZZZZ=           -371.5635 XXXY=              9.6949
 XXXZ=              6.7526 YYYX=            -18.3584 YYYZ=              5.6121 ZZZX=             -0.5628
 ZZZY=             -3.5329 XXYY=           -370.4010 XXZZ=           -337.1446 YYZZ=           -166.9351
 XXYZ=             -1.8399 YYXZ=             -0.2425 ZZXY=              0.0041
 N-N= 6.960775489697D+02 E-N=-2.464194156708D+03  KE= 4.555271448123D+02
 ******************************Gaussian NBO Version 3.1******************************
             N A T U R A L   A T O M I C   O R B I T A L   A N D
          N A T U R A L   B O N D   O R B I T A L   A N A L Y S I S
 ******************************Gaussian NBO Version 3.1******************************
       /RESON  / : Allow strongly delocalized NBO set
       /NLMO   / : Form Natural Localized Molecular Orbitals
       /NMR /    : Analyze NMR Sheilding Tensor 

 Analyzing the SCF density

 Job title: comment                                                         

 Storage needed:     19864 in NPA,     23691 in NBO,     45933 in NLMO (  33549317 available)


 NATURAL POPULATIONS:  Natural atomic orbital occupancies 
                                                          
   NAO  Atom  No  lang   Type(AO)    Occupancy      Energy
 ----------------------------------------------------------
     1    C    1  S      Cor( 1S)     1.99997     -10.96683
     2    C    1  S      Val( 2S)     1.07967      -0.18401
     3    C    1  px     Val( 2p)     1.02601       0.08036
     4    C    1  py     Val( 2p)     1.02944       0.08056
     5    C    1  pz     Val( 2p)     0.99536       0.08704

     6    C    2  S      Cor( 1S)     1.99997     -10.99122
     7    C    2  S      Val( 2S)     1.07896      -0.19341
     8    C    2  px     Val( 2p)     0.98465       0.10042
     9    C    2  py     Val( 2p)     0.95792       0.10755
    10    C    2  pz     Val( 2p)     0.96394       0.10714

    11    C    3  S      Cor( 1S)     1.99988     -11.03245
    12    C    3  S      Val( 2S)     1.08655      -0.21416
    13    C    3  px     Val( 2p)     0.93994       0.09708
    14    C    3  py     Val( 2p)     0.85901       0.11078
    15    C    3  pz     Val( 2p)     0.97121       0.09697

    16    C    4  S      Cor( 1S)     1.99996     -10.97448
    17    C    4  S      Val( 2S)     1.08311      -0.18804
    18    C    4  px     Val( 2p)     0.98193       0.09581
    19    C    4  py     Val( 2p)     0.98965       0.09527
    20    C    4  pz     Val( 2p)     1.01291       0.09421

    21    C    5  S      Cor( 1S)     1.99995     -10.98744
    22    C    5  S      Val( 2S)     1.10037      -0.20720
    23    C    5  px     Val( 2p)     0.95637       0.10912
    24    C    5  py     Val( 2p)     0.95303       0.11122
    25    C    5  pz     Val( 2p)     0.99964       0.09740

    26    C    6  S      Cor( 1S)     1.99996     -10.97514
    27    C    6  S      Val( 2S)     1.08324      -0.18857
    28    C    6  px     Val( 2p)     0.97506       0.10013
    29    C    6  py     Val( 2p)     0.99416       0.09528
    30    C    6  pz     Val( 2p)     1.00931       0.09123

    31    C    7  S      Cor( 1S)     1.99996     -10.97543
    32    C    7  S      Val( 2S)     1.09285      -0.19936
    33    C    7  px     Val( 2p)     0.98909       0.08913
    34    C    7  py     Val( 2p)     0.98876       0.09179
    35    C    7  pz     Val( 2p)     1.01968       0.08317

    36    O    8  S      Cor( 1S)     1.99999     -20.14028
    37    O    8  S      Val( 2S)     1.74910      -0.99752
    38    O    8  px     Val( 2p)     1.63495      -0.24169
    39    O    8  py     Val( 2p)     1.11779      -0.01309
    40    O    8  pz     Val( 2p)     1.83282      -0.31562

    41    C    9  S      Cor( 1S)     1.99996     -10.98450
    42    C    9  S      Val( 2S)     1.08475      -0.18952
    43    C    9  px     Val( 2p)     0.95215       0.11690
    44    C    9  py     Val( 2p)     0.99473       0.10719
    45    C    9  pz     Val( 2p)     0.94906       0.12179

    46    C   10  S      Cor( 1S)     1.99997     -10.95948
    47    C   10  S      Val( 2S)     1.08093      -0.17733
    48    C   10  px     Val( 2p)     1.01529       0.08886
    49    C   10  py     Val( 2p)     1.01240       0.09265
    50    C   10  pz     Val( 2p)     1.02002       0.09025

    51    C   11  S      Cor( 1S)     1.99997     -10.95961
    52    C   11  S      Val( 2S)     1.07930      -0.17641
    53    C   11  px     Val( 2p)     1.03021       0.08612
    54    C   11  py     Val( 2p)     1.02600       0.09122
    55    C   11  pz     Val( 2p)     0.99598       0.09237

    56    H   12  S      Val( 1S)     0.96412       0.07133

    57    H   13  S      Val( 1S)     0.96258       0.07298

    58    H   14  S      Val( 1S)     0.96413       0.07297

    59    H   15  S      Val( 1S)     0.97440       0.06557

    60    H   16  S      Val( 1S)     0.99626       0.05089

    61    H   17  S      Val( 1S)     0.97205       0.07227

    62    H   18  S      Val( 1S)     0.96671       0.07438

    63    H   19  S      Val( 1S)     0.97469       0.07094

    64    H   20  S      Val( 1S)     0.97014       0.07004

    65    H   21  S      Val( 1S)     0.97260       0.06961

    66    H   22  S      Val( 1S)     0.97554       0.06019

    67    H   23  S      Val( 1S)     0.96616       0.07100

    68    H   24  S      Val( 1S)     0.81146       0.07447

    69    H   25  S      Val( 1S)     0.96534       0.08504

    70    H   26  S      Val( 1S)     0.96594       0.07896

    71    H   27  S      Val( 1S)     0.96454       0.07935

    72    H   28  S      Val( 1S)     0.96364       0.07896

    73    H   29  S      Val( 1S)     0.96600       0.07816

    74    H   30  S      Val( 1S)     0.96413       0.08071

    75    H   31  S      Val( 1S)     0.96272       0.07899


 Summary of Natural Population Analysis:                  
                                                          
                                       Natural Population 
                Natural  -----------------------------------------------
    Atom  No    Charge         Core      Valence    Rydberg      Total
 -----------------------------------------------------------------------
      C    1   -0.13045      1.99997     4.13048    0.00000     6.13045
      C    2    0.01457      1.99997     3.98547    0.00000     5.98543
      C    3    0.14340      1.99988     3.85672    0.00000     5.85660
      C    4   -0.06756      1.99996     4.06760    0.00000     6.06756
      C    5   -0.00936      1.99995     4.00941    0.00000     6.00936
      C    6   -0.06174      1.99996     4.06178    0.00000     6.06174
      C    7   -0.09034      1.99996     4.09037    0.00000     6.09034
      O    8   -0.33465      1.99999     6.33466    0.00000     8.33465
      C    9    0.01936      1.99996     3.98069    0.00000     5.98064
      C   10   -0.12861      1.99997     4.12864    0.00000     6.12861
      C   11   -0.13146      1.99997     4.13149    0.00000     6.13146
      H   12    0.03588      0.00000     0.96412    0.00000     0.96412
      H   13    0.03742      0.00000     0.96258    0.00000     0.96258
      H   14    0.03587      0.00000     0.96413    0.00000     0.96413
      H   15    0.02560      0.00000     0.97440    0.00000     0.97440
      H   16    0.00374      0.00000     0.99626    0.00000     0.99626
      H   17    0.02795      0.00000     0.97205    0.00000     0.97205
      H   18    0.03329      0.00000     0.96671    0.00000     0.96671
      H   19    0.02531      0.00000     0.97469    0.00000     0.97469
      H   20    0.02986      0.00000     0.97014    0.00000     0.97014
      H   21    0.02740      0.00000     0.97260    0.00000     0.97260
      H   22    0.02446      0.00000     0.97554    0.00000     0.97554
      H   23    0.03384      0.00000     0.96616    0.00000     0.96616
      H   24    0.18854      0.00000     0.81146    0.00000     0.81146
      H   25    0.03466      0.00000     0.96534    0.00000     0.96534
      H   26    0.03406      0.00000     0.96594    0.00000     0.96594
      H   27    0.03546      0.00000     0.96454    0.00000     0.96454
      H   28    0.03636      0.00000     0.96364    0.00000     0.96364
      H   29    0.03400      0.00000     0.96600    0.00000     0.96600
      H   30    0.03587      0.00000     0.96413    0.00000     0.96413
      H   31    0.03728      0.00000     0.96272    0.00000     0.96272
 =======================================================================
   * Total *    0.00000     21.99954    66.00046    0.00000    88.00000

                                 Natural Population      
 --------------------------------------------------------
   Core                      21.99954 ( 99.9979% of  22)
   Valence                   66.00046 (100.0007% of  66)
   Natural Minimal Basis     88.00000 (100.0000% of  88)
   Natural Rydberg Basis      0.00000 (  0.0000% of  88)
 --------------------------------------------------------

    Atom  No          Natural Electron Configuration
 ----------------------------------------------------------------------------
      C    1      [core]2S( 1.08)2p( 3.05)
      C    2      [core]2S( 1.08)2p( 2.91)
      C    3      [core]2S( 1.09)2p( 2.77)
      C    4      [core]2S( 1.08)2p( 2.98)
      C    5      [core]2S( 1.10)2p( 2.91)
      C    6      [core]2S( 1.08)2p( 2.98)
      C    7      [core]2S( 1.09)2p( 3.00)
      O    8      [core]2S( 1.75)2p( 4.59)
      C    9      [core]2S( 1.08)2p( 2.90)
      C   10      [core]2S( 1.08)2p( 3.05)
      C   11      [core]2S( 1.08)2p( 3.05)
      H   12            1S( 0.96)
      H   13            1S( 0.96)
      H   14            1S( 0.96)
      H   15            1S( 0.97)
      H   16            1S( 1.00)
      H   17            1S( 0.97)
      H   18            1S( 0.97)
      H   19            1S( 0.97)
      H   20            1S( 0.97)
      H   21            1S( 0.97)
      H   22            1S( 0.98)
      H   23            1S( 0.97)
      H   24            1S( 0.81)
      H   25            1S( 0.97)
      H   26            1S( 0.97)
      H   27            1S( 0.96)
      H   28            1S( 0.96)
      H   29            1S( 0.97)
      H   30            1S( 0.96)
      H   31            1S( 0.96)


 NATURAL BOND ORBITAL ANALYSIS:

                       Occupancies       Lewis Structure    Low   High
           Occ.    -------------------  -----------------   occ   occ
  Cycle   Thresh.   Lewis   Non-Lewis     CR  BD  3C  LP    (L)   (NL)   Dev
 =============================================================================
   1(1)    1.90    87.63735   0.36265     11  31   0   2     0      0    0.02
 -----------------------------------------------------------------------------

 Structure accepted: No low occupancy Lewis orbitals

 --------------------------------------------------------
   Core                     21.99954 ( 99.998% of  22)
   Valence Lewis            65.63781 ( 99.451% of  66)
  ==================       ============================
   Total Lewis              87.63735 ( 99.588% of  88)
  -----------------------------------------------------
   Valence non-Lewis         0.36265 (  0.412% of  88)
   Rydberg non-Lewis         0.00000 (  0.000% of  88)
  ==================       ============================
   Total non-Lewis           0.36265 (  0.412% of  88)
 --------------------------------------------------------


       (Occupancy)   Bond orbital/ Coefficients/ Hybrids
 ---------------------------------------------------------------------------------
     1. (1.99032) BD ( 1) C   1 - C   2  
                ( 50.96%)   0.7139* C   1 s( 25.83%)p 2.87( 74.17%)
                                            0.0001  0.5082  0.2309  0.0815 -0.8257
                ( 49.04%)   0.7003* C   2 s( 25.09%)p 2.99( 74.91%)
                                            0.0000  0.5009 -0.1861 -0.0774  0.8417
     2. (1.99487) BD ( 1) C   1 - H  12  
                ( 51.80%)   0.7197* C   1 s( 24.61%)p 3.06( 75.39%)
                                            0.0000  0.4961 -0.5451  0.6404  0.2161
                ( 48.20%)   0.6943* H  12 s(100.00%)
                                            1.0000
     3. (1.99485) BD ( 1) C   1 - H  13  
                ( 51.88%)   0.7202* C   1 s( 24.63%)p 3.06( 75.37%)
                                            0.0000  0.4963 -0.3972 -0.7627  0.1192
                ( 48.12%)   0.6937* H  13 s(100.00%)
                                            1.0000
     4. (1.99504) BD ( 1) C   1 - H  14  
                ( 51.85%)   0.7201* C   1 s( 24.93%)p 3.01( 75.07%)
                                            0.0000  0.4993  0.7013  0.0390  0.5073
                ( 48.15%)   0.6939* H  14 s(100.00%)
                                            1.0000
     5. (1.98523) BD ( 1) C   2 - C   6  
                ( 49.77%)   0.7055* C   2 s( 25.20%)p 2.97( 74.80%)
                                            0.0000  0.5020  0.5311 -0.6390 -0.2401
                ( 50.23%)   0.7088* C   6 s( 25.40%)p 2.94( 74.60%)
                                            0.0001  0.5040 -0.5004  0.6465  0.2788
     6. (1.98379) BD ( 1) C   2 - C   7  
                ( 49.35%)   0.7025* C   2 s( 25.13%)p 2.98( 74.87%)
                                            0.0000  0.5013  0.3801  0.7639 -0.1440
                ( 50.65%)   0.7117* C   7 s( 25.69%)p 2.89( 74.31%)
                                            0.0001  0.5068 -0.3505 -0.7668  0.1796
     7. (1.98441) BD ( 1) C   2 - H  15  
                ( 51.17%)   0.7153* C   2 s( 24.58%)p 3.07( 75.42%)
                                            0.0000  0.4958 -0.7341 -0.0471 -0.4617
                ( 48.83%)   0.6988* H  15 s(100.00%)
                                            1.0000
     8. (1.98179) BD ( 1) C   3 - C   5  
                ( 50.75%)   0.7124* C   3 s( 26.58%)p 2.76( 73.42%)
                                            0.0000  0.5156  0.5131 -0.6222 -0.2896
                ( 49.25%)   0.7018* C   5 s( 24.85%)p 3.02( 75.15%)
                                            0.0001  0.4985 -0.4940  0.6401  0.3125
     9. (1.98768) BD ( 1) C   3 - C   7  
                ( 49.26%)   0.7018* C   3 s( 25.57%)p 2.91( 74.43%)
                                            0.0000  0.5057 -0.7954 -0.0867 -0.3226
                ( 50.74%)   0.7124* C   7 s( 25.28%)p 2.96( 74.72%)
                                            0.0000  0.5028  0.7985  0.0442  0.3282
    10. (1.98816) BD ( 1) C   3 - O   8  
                ( 41.03%)   0.6406* C   3 s( 22.28%)p 3.49( 77.72%)
                                            0.0001 -0.4720 -0.3214 -0.7781  0.2618
                ( 58.97%)   0.7679* O   8 s( 16.45%)p 5.08( 83.55%)
                                            0.0000 -0.4056  0.3895  0.7724 -0.2953
    11. (1.98836) BD ( 1) C   3 - H  16  
                ( 50.52%)   0.7108* C   3 s( 25.57%)p 2.91( 74.43%)
                                            0.0000  0.5056 -0.0277 -0.0052  0.8623
                ( 49.48%)   0.7034* H  16 s(100.00%)
                                            1.0000
    12. (1.98402) BD ( 1) C   4 - C   5  
                ( 50.39%)   0.7099* C   4 s( 25.37%)p 2.94( 74.63%)
                                            0.0001  0.5037  0.3497  0.7690 -0.1806
                ( 49.61%)   0.7044* C   5 s( 25.53%)p 2.92( 74.47%)
                                            0.0000  0.5052 -0.3449 -0.7625  0.2107
    13. (1.98943) BD ( 1) C   4 - C   6  
                ( 49.97%)   0.7069* C   4 s( 25.05%)p 2.99( 74.95%)
                                            0.0000  0.5005 -0.8065 -0.0346 -0.3130
                ( 50.03%)   0.7073* C   6 s( 25.32%)p 2.95( 74.68%)
                                            0.0000  0.5032  0.7956  0.0825  0.3270
    14. (1.99008) BD ( 1) C   4 - H  17  
                ( 51.44%)   0.7172* C   4 s( 24.69%)p 3.05( 75.31%)
                                            0.0000  0.4969 -0.0205 -0.1142  0.8600
                ( 48.56%)   0.6969* H  17 s(100.00%)
                                            1.0000
    15. (1.98896) BD ( 1) C   4 - H  18  
                ( 51.63%)   0.7185* C   4 s( 24.89%)p 3.02( 75.11%)
                                            0.0000  0.4989  0.4764 -0.6280 -0.3603
                ( 48.37%)   0.6955* H  18 s(100.00%)
                                            1.0000
    16. (1.97876) BD ( 1) C   5 - C   9  
                ( 50.29%)   0.7092* C   5 s( 25.47%)p 2.93( 74.53%)
                                            0.0001  0.5047  0.7973  0.0636  0.3249
                ( 49.71%)   0.7050* C   9 s( 25.35%)p 2.95( 74.65%)
                                            0.0001  0.5035 -0.8210 -0.1040 -0.2482
    17. (1.98359) BD ( 1) C   5 - H  19  
                ( 51.17%)   0.7154* C   5 s( 24.15%)p 3.14( 75.85%)
                                            0.0000  0.4914  0.0369  0.0692 -0.8674
                ( 48.83%)   0.6988* H  19 s(100.00%)
                                            1.0000
    18. (1.98979) BD ( 1) C   6 - H  20  
                ( 51.47%)   0.7174* C   6 s( 24.99%)p 3.00( 75.01%)
                                            0.0000  0.4999 -0.3388 -0.7581  0.2463
                ( 48.53%)   0.6966* H  20 s(100.00%)
                                            1.0000
    19. (1.99044) BD ( 1) C   6 - H  21  
                ( 51.36%)   0.7167* C   6 s( 24.29%)p 3.12( 75.71%)
                                            0.0000  0.4929  0.0429  0.0236 -0.8687
                ( 48.64%)   0.6974* H  21 s(100.00%)
                                            1.0000
    20. (1.98887) BD ( 1) C   7 - H  22  
                ( 51.20%)   0.7156* C   7 s( 24.74%)p 3.04( 75.26%)
                                            0.0000  0.4974 -0.4880  0.6315  0.3401
                ( 48.80%)   0.6986* H  22 s(100.00%)
                                            1.0000
    21. (1.98956) BD ( 1) C   7 - H  23  
                ( 51.68%)   0.7189* C   7 s( 24.29%)p 3.12( 75.71%)
                                            0.0000  0.4928  0.0384  0.1061 -0.8628
                ( 48.32%)   0.6951* H  23 s(100.00%)
                                            1.0000
    22. (1.98914) BD ( 1) O   8 - H  24  
                ( 59.42%)   0.7708* O   8 s( 16.74%)p 4.97( 83.26%)
                                            0.0000 -0.4091  0.5669 -0.6300 -0.3381
                ( 40.58%)   0.6370* H  24 s(100.00%)
                                           -1.0000
    23. (1.98896) BD ( 1) C   9 - C  10  
                ( 48.91%)   0.6994* C   9 s( 24.93%)p 3.01( 75.07%)
                                            0.0000  0.4993  0.4979 -0.5956 -0.3848
                ( 51.09%)   0.7147* C  10 s( 25.78%)p 2.88( 74.22%)
                                            0.0001  0.5077 -0.5318  0.5578  0.3851
    24. (1.99027) BD ( 1) C   9 - C  11  
                ( 48.87%)   0.6991* C   9 s( 25.23%)p 2.96( 74.77%)
                                            0.0000  0.5023  0.0591 -0.0842  0.8586
                ( 51.13%)   0.7150* C  11 s( 25.91%)p 2.86( 74.09%)
                                            0.0001  0.5090 -0.1024  0.0585 -0.8527
    25. (1.98390) BD ( 1) C   9 - H  25  
                ( 51.62%)   0.7185* C   9 s( 24.50%)p 3.08( 75.50%)
                                            0.0000  0.4950  0.2729  0.7920 -0.2306
                ( 48.38%)   0.6955* H  25 s(100.00%)
                                            1.0000
    26. (1.99526) BD ( 1) C  10 - H  26  
                ( 51.76%)   0.7194* C  10 s( 24.84%)p 3.03( 75.16%)
                                            0.0000  0.4984 -0.1780 -0.8061  0.2647
                ( 48.24%)   0.6946* H  26 s(100.00%)
                                            1.0000
    27. (1.99507) BD ( 1) C  10 - H  27  
                ( 51.79%)   0.7197* C  10 s( 24.75%)p 3.04( 75.25%)
                                            0.0000  0.4975 -0.0989  0.0470 -0.8605
                ( 48.21%)   0.6943* H  27 s(100.00%)
                                            1.0000
    28. (1.99463) BD ( 1) C  10 - H  28  
                ( 51.81%)   0.7198* C  10 s( 24.63%)p 3.06( 75.37%)
                                            0.0000  0.4962  0.8220  0.1919  0.2029
                ( 48.19%)   0.6942* H  28 s(100.00%)
                                            1.0000
    29. (1.99511) BD ( 1) C  11 - H  29  
                ( 51.75%)   0.7194* C  11 s( 24.81%)p 3.03( 75.19%)
                                            0.0000  0.4981 -0.2465 -0.7852  0.2731
                ( 48.25%)   0.6946* H  29 s(100.00%)
                                            1.0000
    30. (1.99452) BD ( 1) C  11 - H  30  
                ( 51.82%)   0.7198* C  11 s( 24.79%)p 3.03( 75.21%)
                                            0.0000  0.4979 -0.4796  0.6042  0.3963
                ( 48.18%)   0.6941* H  30 s(100.00%)
                                            1.0000
    31. (1.99429) BD ( 1) C  11 - H  31  
                ( 51.85%)   0.7201* C  11 s( 24.50%)p 3.08( 75.50%)
                                            0.0000  0.4949  0.8359  0.1223  0.2034
                ( 48.15%)   0.6939* H  31 s(100.00%)
                                            1.0000
    32. (1.99997) CR ( 1) C   1           s(100.00%)
                                            1.0000  0.0000  0.0000  0.0000  0.0001
    33. (1.99997) CR ( 1) C   2           s(100.00%)
                                            1.0000  0.0000  0.0000  0.0000  0.0000
    34. (1.99989) CR ( 1) C   3           s(100.00%)
                                            1.0000  0.0000  0.0000  0.0001  0.0000
    35. (1.99996) CR ( 1) C   4           s(100.00%)
                                            1.0000  0.0000  0.0000 -0.0001  0.0000
    36. (1.99995) CR ( 1) C   5           s(100.00%)
                                            1.0000 -0.0001  0.0000  0.0000  0.0000
    37. (1.99996) CR ( 1) C   6           s(100.00%)
                                            1.0000  0.0000  0.0000 -0.0001  0.0000
    38. (1.99996) CR ( 1) C   7           s(100.00%)
                                            1.0000  0.0000  0.0000  0.0001  0.0000
    39. (1.99999) CR ( 1) O   8           s(100.00%)
                                            1.0000  0.0000  0.0000  0.0000  0.0000
    40. (1.99996) CR ( 1) C   9           s(100.00%)
                                            1.0000  0.0000  0.0001  0.0000  0.0000
    41. (1.99997) CR ( 1) C  10           s(100.00%)
                                            1.0000  0.0000  0.0001  0.0000  0.0000
    42. (1.99997) CR ( 1) C  11           s(100.00%)
                                            1.0000  0.0000  0.0000  0.0000  0.0001
    43. (1.99256) LP ( 1) O   8           s( 66.55%)p 0.50( 33.45%)
                                            0.0000  0.8158  0.4421  0.0651 -0.3671
    44. (1.97610) LP ( 2) O   8           s(  0.26%)p99.99( 99.74%)
                                            0.0000  0.0508  0.5757  0.0478  0.8147
    45. (0.01121) BD*( 1) C   1 - C   2  
                ( 49.04%)   0.7003* C   1 s( 25.83%)p 2.87( 74.17%)
                                           -0.0001 -0.5082 -0.2309 -0.0815  0.8257
                ( 50.96%)  -0.7139* C   2 s( 25.09%)p 2.99( 74.91%)
                                            0.0000 -0.5009  0.1861  0.0774 -0.8417
    46. (0.00497) BD*( 1) C   1 - H  12  
                ( 48.20%)   0.6943* C   1 s( 24.61%)p 3.06( 75.39%)
                                            0.0000 -0.4961  0.5451 -0.6404 -0.2161
                ( 51.80%)  -0.7197* H  12 s(100.00%)
                                           -1.0000
    47. (0.00495) BD*( 1) C   1 - H  13  
                ( 48.12%)   0.6937* C   1 s( 24.63%)p 3.06( 75.37%)
                                            0.0000 -0.4963  0.3972  0.7627 -0.1192
                ( 51.88%)  -0.7202* H  13 s(100.00%)
                                           -1.0000
    48. (0.00679) BD*( 1) C   1 - H  14  
                ( 48.15%)   0.6939* C   1 s( 24.93%)p 3.01( 75.07%)
                                            0.0000 -0.4993 -0.7013 -0.0390 -0.5073
                ( 51.85%)  -0.7201* H  14 s(100.00%)
                                           -1.0000
    49. (0.01644) BD*( 1) C   2 - C   6  
                ( 50.23%)   0.7088* C   2 s( 25.20%)p 2.97( 74.80%)
                                            0.0000  0.5020  0.5311 -0.6390 -0.2401
                ( 49.77%)  -0.7055* C   6 s( 25.40%)p 2.94( 74.60%)
                                            0.0001  0.5040 -0.5004  0.6465  0.2788
    50. (0.01587) BD*( 1) C   2 - C   7  
                ( 50.65%)   0.7117* C   2 s( 25.13%)p 2.98( 74.87%)
                                            0.0000  0.5013  0.3801  0.7639 -0.1440
                ( 49.35%)  -0.7025* C   7 s( 25.69%)p 2.89( 74.31%)
                                            0.0001  0.5068 -0.3505 -0.7668  0.1796
    51. (0.01047) BD*( 1) C   2 - H  15  
                ( 48.83%)   0.6988* C   2 s( 24.58%)p 3.07( 75.42%)
                                            0.0000 -0.4958  0.7341  0.0471  0.4617
                ( 51.17%)  -0.7153* H  15 s(100.00%)
                                           -1.0000
    52. (0.02701) BD*( 1) C   3 - C   5  
                ( 49.25%)   0.7018* C   3 s( 26.58%)p 2.76( 73.42%)
                                            0.0000 -0.5156 -0.5131  0.6222  0.2896
                ( 50.75%)  -0.7124* C   5 s( 24.85%)p 3.02( 75.15%)
                                           -0.0001 -0.4985  0.4940 -0.6401 -0.3125
    53. (0.02718) BD*( 1) C   3 - C   7  
                ( 50.74%)   0.7124* C   3 s( 25.57%)p 2.91( 74.43%)
                                            0.0000  0.5057 -0.7954 -0.0867 -0.3226
                ( 49.26%)  -0.7018* C   7 s( 25.28%)p 2.96( 74.72%)
                                            0.0000  0.5028  0.7985  0.0442  0.3282
    54. (0.02126) BD*( 1) C   3 - O   8  
                ( 58.97%)   0.7679* C   3 s( 22.28%)p 3.49( 77.72%)
                                            0.0001 -0.4720 -0.3214 -0.7781  0.2618
                ( 41.03%)  -0.6406* O   8 s( 16.45%)p 5.08( 83.55%)
                                            0.0000 -0.4056  0.3895  0.7724 -0.2953
    55. (0.02449) BD*( 1) C   3 - H  16  
                ( 49.48%)   0.7034* C   3 s( 25.57%)p 2.91( 74.43%)
                                            0.0000 -0.5056  0.0277  0.0052 -0.8623
                ( 50.52%)  -0.7108* H  16 s(100.00%)
                                           -1.0000
    56. (0.01574) BD*( 1) C   4 - C   5  
                ( 49.61%)   0.7044* C   4 s( 25.37%)p 2.94( 74.63%)
                                           -0.0001 -0.5037 -0.3497 -0.7690  0.1806
                ( 50.39%)  -0.7099* C   5 s( 25.53%)p 2.92( 74.47%)
                                            0.0000 -0.5052  0.3449  0.7625 -0.2107
    57. (0.01185) BD*( 1) C   4 - C   6  
                ( 50.03%)   0.7073* C   4 s( 25.05%)p 2.99( 74.95%)
                                            0.0000  0.5005 -0.8065 -0.0346 -0.3130
                ( 49.97%)  -0.7069* C   6 s( 25.32%)p 2.95( 74.68%)
                                            0.0000  0.5032  0.7956  0.0825  0.3270
    58. (0.01096) BD*( 1) C   4 - H  17  
                ( 48.56%)   0.6969* C   4 s( 24.69%)p 3.05( 75.31%)
                                            0.0000 -0.4969  0.0205  0.1142 -0.8600
                ( 51.44%)  -0.7172* H  17 s(100.00%)
                                           -1.0000
    59. (0.00883) BD*( 1) C   4 - H  18  
                ( 48.37%)   0.6955* C   4 s( 24.89%)p 3.02( 75.11%)
                                            0.0000 -0.4989 -0.4764  0.6280  0.3603
                ( 51.63%)  -0.7185* H  18 s(100.00%)
                                           -1.0000
    60. (0.02261) BD*( 1) C   5 - C   9  
                ( 49.71%)   0.7050* C   5 s( 25.47%)p 2.93( 74.53%)
                                           -0.0001 -0.5047 -0.7973 -0.0636 -0.3249
                ( 50.29%)  -0.7092* C   9 s( 25.35%)p 2.95( 74.65%)
                                           -0.0001 -0.5035  0.8210  0.1040  0.2482
    61. (0.01204) BD*( 1) C   5 - H  19  
                ( 48.83%)   0.6988* C   5 s( 24.15%)p 3.14( 75.85%)
                                            0.0000 -0.4914 -0.0369 -0.0692  0.8674
                ( 51.17%)  -0.7154* H  19 s(100.00%)
                                           -1.0000
    62. (0.00875) BD*( 1) C   6 - H  20  
                ( 48.53%)   0.6966* C   6 s( 24.99%)p 3.00( 75.01%)
                                            0.0000 -0.4999  0.3388  0.7581 -0.2463
                ( 51.47%)  -0.7174* H  20 s(100.00%)
                                           -1.0000
    63. (0.00884) BD*( 1) C   6 - H  21  
                ( 48.64%)   0.6974* C   6 s( 24.29%)p 3.12( 75.71%)
                                            0.0000 -0.4929 -0.0429 -0.0236  0.8687
                ( 51.36%)  -0.7167* H  21 s(100.00%)
                                           -1.0000
    64. (0.00982) BD*( 1) C   7 - H  22  
                ( 48.80%)   0.6986* C   7 s( 24.74%)p 3.04( 75.26%)
                                            0.0000 -0.4974  0.4880 -0.6315 -0.3401
                ( 51.20%)  -0.7156* H  22 s(100.00%)
                                           -1.0000
    65. (0.00921) BD*( 1) C   7 - H  23  
                ( 48.32%)   0.6951* C   7 s( 24.29%)p 3.12( 75.71%)
                                            0.0000 -0.4928 -0.0384 -0.1061  0.8628
                ( 51.68%)  -0.7189* H  23 s(100.00%)
                                           -1.0000
    66. (0.00721) BD*( 1) O   8 - H  24  
                ( 40.58%)   0.6370* O   8 s( 16.74%)p 4.97( 83.26%)
                                            0.0000  0.4091 -0.5669  0.6300  0.3381
                ( 59.42%)  -0.7708* H  24 s(100.00%)
                                            1.0000
    67. (0.01020) BD*( 1) C   9 - C  10  
                ( 51.09%)   0.7147* C   9 s( 24.93%)p 3.01( 75.07%)
                                            0.0000  0.4993  0.4979 -0.5956 -0.3848
                ( 48.91%)  -0.6994* C  10 s( 25.78%)p 2.88( 74.22%)
                                            0.0001  0.5077 -0.5318  0.5578  0.3851
    68. (0.01092) BD*( 1) C   9 - C  11  
                ( 51.13%)   0.7150* C   9 s( 25.23%)p 2.96( 74.77%)
                                            0.0000  0.5023  0.0591 -0.0842  0.8586
                ( 48.87%)  -0.6991* C  11 s( 25.91%)p 2.86( 74.09%)
                                            0.0001  0.5090 -0.1024  0.0585 -0.8527
    69. (0.01085) BD*( 1) C   9 - H  25  
                ( 48.38%)   0.6955* C   9 s( 24.50%)p 3.08( 75.50%)
                                            0.0000 -0.4950 -0.2729 -0.7920  0.2306
                ( 51.62%)  -0.7185* H  25 s(100.00%)
                                           -1.0000
    70. (0.00659) BD*( 1) C  10 - H  26  
                ( 48.24%)   0.6946* C  10 s( 24.84%)p 3.03( 75.16%)
                                            0.0000 -0.4984  0.1780  0.8061 -0.2647
                ( 51.76%)  -0.7194* H  26 s(100.00%)
                                           -1.0000
    71. (0.00537) BD*( 1) C  10 - H  27  
                ( 48.21%)   0.6943* C  10 s( 24.75%)p 3.04( 75.25%)
                                            0.0000 -0.4975  0.0989 -0.0470  0.8605
                ( 51.79%)  -0.7197* H  27 s(100.00%)
                                           -1.0000
    72. (0.00477) BD*( 1) C  10 - H  28  
                ( 48.19%)   0.6942* C  10 s( 24.63%)p 3.06( 75.37%)
                                            0.0000 -0.4962 -0.8220 -0.1919 -0.2029
[...]
                         Standard Origin              Atomic Origin
 NLMO      Total    Paramagnetic  Diamagnetic   Paramagnetic  Diamagnetic
   10       0.1069       -0.4015       0.5084        -1.2736       1.3805
   16       5.6392       -9.0672      14.7064        -2.0045       7.6437
   17       0.4079       -0.0143       0.4222        -0.6069       1.0148
   23      -1.6136       -4.1898       2.5762        -9.0548       7.4411
   24      -0.3551       -6.3526       5.9975        -7.8032       7.4482
   25       6.1010       -1.4926       7.5936        -5.0057      11.1067
   26       1.0854       -0.2715       1.3569         0.0700       1.0154
   27       0.7119       -0.6479       1.3598        -0.3268       1.0386
   28       0.6277       -0.3823       1.0100        -0.4047       1.0324
   29       0.8798       -0.2726       1.1524        -0.1484       1.0281
   30       0.6357       -0.5368       1.1725        -0.3747       1.0104
   31       0.5941       -0.1875       0.7816        -0.4381       1.0322
   40     199.9237       -0.0018     199.9254         0.0024     199.9213
 Sum      214.7444      -23.8183     238.5628       -27.3690     242.1134

 Contributions to Isotropic shielding for atom   10 (   221.2594 ppm):
                         Standard Origin              Atomic Origin
 NLMO      Total    Paramagnetic  Diamagnetic   Paramagnetic  Diamagnetic
   23       4.4746      -11.6708      16.1453        -3.5611       8.0356
   24      -0.5358        0.0496      -0.5854        -1.2222       0.6865
   25       0.3429        0.1676       0.1753        -0.7098       1.0527
   26       6.2075       -4.0372      10.2448        -4.8981      11.1056
   27       5.5744       -3.9648       9.5392        -5.5277      11.1021
   28       5.0630        2.6329       2.4301        -6.0345      11.0975
   41     200.0749       -0.0037     200.0786         0.0022     200.0727
 Sum      221.2016      -16.8264     238.0279       -21.9512     243.1528

 Contributions to Isotropic shielding for atom   11 (   224.3806 ppm):
                         Standard Origin              Atomic Origin
 NLMO      Total    Paramagnetic  Diamagnetic   Paramagnetic  Diamagnetic
   23      -0.3833        0.0270      -0.4103        -1.0558       0.6724
   24       3.9262       -9.2983      13.2245        -4.1267       8.0529
   25       0.3584       -0.0888       0.4472        -0.6643       1.0227
   29       6.7751       -4.1992      10.9743        -4.3173      11.0924
   30       6.9111       -5.1662      12.0773        -4.1949      11.1060
   31       6.1069        3.4728       2.6341        -4.9867      11.0936
   42     200.0736       -0.0023     200.0758         0.0015     200.0721
 Sum      223.7679      -15.2550     239.0229       -19.3441     243.1120

 Contributions to Isotropic shielding for atom   12 (    32.6987 ppm):
                         Standard Origin              Atomic Origin
 NLMO      Total    Paramagnetic  Diamagnetic   Paramagnetic  Diamagnetic
    1       1.3037        0.3976       0.9061         0.2725       1.0312
    2      26.3596        0.1063      26.2533         0.4182      25.9414
    3       1.9388        2.3818      -0.4430         0.0962       1.8426
    4       2.1028        0.5898       1.5130         0.2491       1.8537
 Sum       31.7049        3.4755      28.2295         1.0359      30.6690

 Contributions to Isotropic shielding for atom   13 (    32.6399 ppm):
                         Standard Origin              Atomic Origin
 NLMO      Total    Paramagnetic  Diamagnetic   Paramagnetic  Diamagnetic
    1       1.2703        0.4878       0.7826         0.2348       1.0355
    2       1.9417        2.3572      -0.4155         0.1035       1.8382
    3      26.3259        0.0924      26.2334         0.4263      25.8996
    4       2.0966        0.6666       1.4300         0.2421       1.8545
 Sum       31.6345        3.6040      28.0305         1.0067      30.6279

 Contributions to Isotropic shielding for atom   14 (    32.7033 ppm):
                         Standard Origin              Atomic Origin
 NLMO      Total    Paramagnetic  Diamagnetic   Paramagnetic  Diamagnetic
    1       1.6170       -1.2769       2.8939         0.7201       0.8969
    2       1.9875        0.9353       1.0522         0.1507       1.8368
    3       1.9866        1.0436       0.9430         0.1438       1.8428
    4      26.2926        0.3816      25.9110         0.3575      25.9351
 Sum       31.8837        1.0836      30.8002         1.3720      30.5117

 Contributions to Isotropic shielding for atom   15 (    32.4201 ppm):
                         Standard Origin              Atomic Origin
 NLMO      Total    Paramagnetic  Diamagnetic   Paramagnetic  Diamagnetic
    1       0.7923        2.2323      -1.4400        -0.2193       1.0116
    5       1.2179        1.2863      -0.0684         0.2291       0.9889
    6       1.2409        1.1929       0.0479         0.2851       0.9558
    7      26.5338       -0.2849      26.8188         0.5123      26.0215
   19       0.1451        0.0731       0.0719        -0.8942       1.0393
   21       0.1331        0.1321       0.0010        -0.9069       1.0401
 Sum       30.0632        4.6319      25.4313        -0.9940      31.0571

 Contributions to Isotropic shielding for atom   16 (    32.1701 ppm):
                         Standard Origin              Atomic Origin
 NLMO      Total    Paramagnetic  Diamagnetic   Paramagnetic  Diamagnetic
    8       1.1495       -0.2504       1.3999         0.0882       1.0613
   10       0.6908        0.8312      -0.1404        -0.8718       1.5627
   11      26.7295        0.4080      26.3215         0.6631      26.0664
   22       0.3302       -0.8883       1.2185        -0.6364       0.9666
   24       0.0157       -0.6715       0.6872        -1.0076       1.0232
   30      -0.3985       -1.3479       0.9495        -0.8896       0.4912
 Sum       28.5171       -1.9190      30.4362        -2.6542      31.1713

 Contributions to Isotropic shielding for atom   17 (    32.8834 ppm):
                         Standard Origin              Atomic Origin
 NLMO      Total    Paramagnetic  Diamagnetic   Paramagnetic  Diamagnetic
   12       1.3771        0.0098       1.3673         0.4698       0.9072
   13       1.1105        0.8760       0.2345         0.1601       0.9505
   14      26.4233        0.1790      26.2442         0.3899      26.0334
   15       2.0714        1.3910       0.6804         0.3079       1.7634
   29      -0.3347       -1.3422       1.0074        -0.9359       0.6012
 Sum       30.6475        1.1137      29.5338         0.3918      30.2557

 Contributions to Isotropic shielding for atom   18 (    32.5077 ppm):
                         Standard Origin              Atomic Origin
 NLMO      Total    Paramagnetic  Diamagnetic   Paramagnetic  Diamagnetic
   12       1.2893        0.5083       0.7810         0.3264       0.9629
   13       1.0437        1.4239      -0.3803        -0.0178       1.0615
   14       2.1266        1.1735       0.9531         0.3658       1.7608
   15      26.3431        0.0216      26.3215         0.4264      25.9167
   19       0.2051       -0.4240       0.6290        -0.8140       1.0191
   26      -0.3123       -1.5318       1.2195        -0.9842       0.6719
 Sum       30.6954        1.1716      29.5239        -0.6975      31.3929

 Contributions to Isotropic shielding for atom   19 (    32.3521 ppm):
                         Standard Origin              Atomic Origin
 NLMO      Total    Paramagnetic  Diamagnetic   Paramagnetic  Diamagnetic
    8       1.2251        0.8566       0.3686         0.3355       0.8897
   10       0.1543       -0.4840       0.6383        -1.3593       1.5135
   12       1.1803        0.7815       0.3988         0.1879       0.9924
   16       1.0678        1.2773      -0.2095        -0.0982       1.1660
   17      26.3793        0.0377      26.3415         0.4370      25.9423
   27      -0.1398       -1.5226       1.3828        -1.0228       0.8830
 Sum       29.8670        0.9465      28.9205        -1.5199      31.3869

 Contributions to Isotropic shielding for atom   20 (    32.5121 ppm):
                         Standard Origin              Atomic Origin
 NLMO      Total    Paramagnetic  Diamagnetic   Paramagnetic  Diamagnetic
    1      -0.0820       -0.0866       0.0046        -1.0544       0.9725
    3      -0.1016       -1.0553       0.9538        -0.9969       0.8953
    5       1.0277        1.2852      -0.2576         0.1237       0.9040
   13       1.2393        0.5646       0.6746         0.2192       1.0200
   18      26.4535        0.0184      26.4351         0.4917      25.9619
   19       2.0250        1.7614       0.2635         0.2869       1.7380
 Sum       30.5619        2.4878      28.0741        -0.9298      31.4917

 Contributions to Isotropic shielding for atom   21 (    32.4989 ppm):
                         Standard Origin              Atomic Origin
 NLMO      Total    Paramagnetic  Diamagnetic   Paramagnetic  Diamagnetic
    5       1.1863        0.7681       0.4182         0.2089       0.9775
   13       1.3735        0.0391       1.3343         0.3877       0.9857
   18       1.9376        1.9430      -0.0054         0.1605       1.7771
   19      26.4773        0.1228      26.3545         0.4383      26.0389
 Sum       30.9747        2.8731      28.1016         1.1955      29.7792

 Contributions to Isotropic shielding for atom   22 (    32.8245 ppm):
                         Standard Origin              Atomic Origin
 NLMO      Total    Paramagnetic  Diamagnetic   Paramagnetic  Diamagnetic
    1      -0.0633       -0.1753       0.1120        -1.0267       0.9634
    2      -0.1033       -1.0870       0.9837        -0.9948       0.8915
    6       1.0188        1.2633      -0.2445         0.0975       0.9213
    9       1.2859        0.5160       0.7699         0.3792       0.9067
   10      -0.2178        0.4428      -0.6605        -1.3362       1.1184
   20      26.5733        0.0484      26.5249         0.4728      26.1005
   21       2.0080        1.7133       0.2946         0.1755       1.8325
 Sum       30.5016        2.7216      27.7800        -2.2327      32.7343

 Contributions to Isotropic shielding for atom   23 (    32.2310 ppm):
                         Standard Origin              Atomic Origin
 NLMO      Total    Paramagnetic  Diamagnetic   Paramagnetic  Diamagnetic
    6       1.0988        0.7526       0.3462         0.1068       0.9919
    9       1.3862        0.0750       1.3112         0.4862       0.9000
   10      -0.0994        0.0598      -0.1592        -1.4285       1.3292
   20       1.8960        1.7864       0.1096         0.0673       1.8287
   21      26.3012        0.1368      26.1644         0.4427      25.8586
 Sum       30.5828        2.8105      27.7723        -0.3255      30.9083

 Contributions to Isotropic shielding for atom   24 (    35.0549 ppm):
                         Standard Origin              Atomic Origin
 NLMO      Total    Paramagnetic  Diamagnetic   Paramagnetic  Diamagnetic
    9      -0.2211        0.4517      -0.6728        -1.2510       1.0299
   10       1.3662        2.1808      -0.8145         0.6510       0.7152
   11       0.1655        0.2584      -0.0929        -0.8484       1.0139
   20      -0.0491       -0.5484       0.4992        -1.0010       0.9518
   22      23.1087       -0.4929      23.6015        -0.0913      23.2000
   43       4.2050        0.9107       3.2943         2.2688       1.9362
   44       5.5791        2.4328       3.1463         2.4117       3.1675
 Sum       34.1543        5.1931      28.9612         2.1398      32.0145

 Contributions to Isotropic shielding for atom   25 (    31.7750 ppm):
                         Standard Origin              Atomic Origin
 NLMO      Total    Paramagnetic  Diamagnetic   Paramagnetic  Diamagnetic
   10       0.1563       -0.4714       0.6278        -1.2823       1.4386
   16       1.5990       -0.0712       1.6702         0.5684       1.0306
   23       0.8037        1.9920      -1.1883        -0.2259       1.0296
   24       0.9836        1.3836      -0.4000        -0.0384       1.0219
   25      26.1744       -0.0716      26.2461         0.4244      25.7501
   28       0.2098       -0.6953       0.9052        -0.8004       1.0102
   43      -0.5723        0.0420      -0.6143         0.5438      -1.1160
 Sum       29.3546        2.1079      27.2466        -0.8104      30.1650

 Contributions to Isotropic shielding for atom   26 (    32.5532 ppm):
                         Standard Origin              Atomic Origin
 NLMO      Total    Paramagnetic  Diamagnetic   Paramagnetic  Diamagnetic
   12      -0.0764        0.1899      -0.2662        -1.0936       1.0172
   23       1.5309       -1.0332       2.5640         0.6128       0.9181
   24      -0.1587        0.3402      -0.4989        -1.0640       0.9053
   26      26.3749        0.2591      26.1159         0.4094      25.9655
   27       2.0169        0.8521       1.1649         0.2039       1.8130
   28       1.9044        2.0979      -0.1935         0.0547       1.8497
 Sum       31.5921        2.7059      28.8861        -0.8767      32.4688

 Contributions to Isotropic shielding for atom   27 (    32.4675 ppm):
                         Standard Origin              Atomic Origin
 NLMO      Total    Paramagnetic  Diamagnetic   Paramagnetic  Diamagnetic
   16      -0.0366        0.1684      -0.2050        -1.0004       0.9638
   23       1.5724       -0.8435       2.4159         0.5529       1.0195
   26       2.0303        0.8448       1.1855         0.2102       1.8200
   27      26.3557        0.2760      26.0797         0.4205      25.9352
   28       1.9069        2.2062      -0.2993         0.0653       1.8417
 Sum       31.8287        2.6518      29.1768         0.2485      31.5802

 Contributions to Isotropic shielding for atom   28 (    32.3765 ppm):
                         Standard Origin              Atomic Origin
 NLMO      Total    Paramagnetic  Diamagnetic   Paramagnetic  Diamagnetic
   23       1.2704        0.2778       0.9925         0.2365       1.0339
   24      -0.1638        0.7337      -0.8975        -1.0912       0.9274
   26       1.9445        1.7626       0.1820         0.0880       1.8565
   27       1.9356        1.8744       0.0612         0.0864       1.8492
   28      26.3624        0.0121      26.3504         0.4388      25.9236
 Sum       31.3492        4.6606      26.6886        -0.2414      31.5906

 Contributions to Isotropic shielding for atom   29 (    32.7874 ppm):
                         Standard Origin              Atomic Origin
 NLMO      Total    Paramagnetic  Diamagnetic   Paramagnetic  Diamagnetic
   12      -0.0716        0.0111      -0.0827        -1.0550       0.9834
   24       1.4518       -0.4839       1.9357         0.5142       0.9376
   29      26.3611        0.2527      26.1084         0.3799      25.9811
   30       2.1269        0.3903       1.7366         0.3126       1.8143
   31       1.9869        2.0478      -0.0608         0.1420       1.8450
 Sum       31.8551        2.2179      29.6371         0.2937      31.5614

 Contributions to Isotropic shielding for atom   30 (    32.4712 ppm):
                         Standard Origin              Atomic Origin
 NLMO      Total    Paramagnetic  Diamagnetic   Paramagnetic  Diamagnetic
    8      -0.0991       -0.0133      -0.0859        -1.0662       0.9670
   10       0.0304       -0.0992       0.1297        -1.0548       1.0852
   24       1.5048       -0.7134       2.2182         0.4765       1.0283
   29       2.1075        0.4163       1.6912         0.2808       1.8266
   30      26.3235        0.2803      26.0432         0.3660      25.9575
   31       1.9560        1.8383       0.1177         0.0876       1.8684
 Sum       31.8231        1.7090      30.1140        -0.9099      32.7330

 Contributions to Isotropic shielding for atom   31 (    32.5284 ppm):
                         Standard Origin              Atomic Origin
 NLMO      Total    Paramagnetic  Diamagnetic   Paramagnetic  Diamagnetic
   23      -0.1441        0.5330      -0.6771        -1.1243       0.9802
   24       1.1705        0.8954       0.2752         0.1288       1.0418
   29       2.0016        1.6663       0.3354         0.1444       1.8572
   30       2.0525        1.5008       0.5517         0.1834       1.8691
   31      26.3075       -0.0365      26.3440         0.3947      25.9128
 Sum       31.3881        4.5589      26.8292        -0.2730      31.6611
 
 1\1\GINC-COMPUTE-10-5\SP\RHF\STO-3G\C10H20O1\YTSAI.IQUIR\03-Aug-2021\0
 \\# rhf/STO-3G nmr pop=nbo\\comment\\0,1\C,0,2.138972638,0.880431796,-
 1.912527654\C,0,0.660087581,0.62761515,-2.216692456\C,0,0.2025327,-1.2
 04852974,-0.491220299\C,0,-0.331817222,1.204298798,0.069442062\C,0,-0.
 743688009,-0.263514193,0.286621668\C,0,-0.253566788,1.562778719,-1.415
 827795\C,0,0.272782159,-0.834768504,-1.976044409\O,0,-0.269404458,-2.5
 46550379,-0.382117816\C,0,-0.881921963,-0.658732443,1.788557067\C,0,-1
 .990543238,0.138567491,2.486044869\C,0,0.41603783,-0.536351706,2.59165
 7952\H,0,2.773542559,0.234279761,-2.528511974\H,0,2.405293,1.918579019
 ,-2.138250349\H,0,2.388998767,0.692360584,-0.86444142\H,0,0.513118247,
 0.844565557,-3.28281289\H,0,1.208707007,-1.176616358,-0.061004249\H,0,
 0.637073146,1.404052652,0.539579355\H,0,-1.055601186,1.876613018,0.542
 578914\H,0,-1.746405022,-0.392521813,-0.148564157\H,0,0.079544544,2.60
 1841799,-1.524525067\H,0,-1.265024054,1.516110318,-1.840188037\H,0,0.9
 70953962,-1.505850243,-2.492401373\H,0,-0.705209983,-1.029678549,-2.43
 728317\H,0,0.353820922,-3.116782773,-0.863766576\H,0,-1.189036015,-1.7
 12115757,1.828943707\H,0,-1.722528313,1.192889101,2.605736655\H,0,-2.9
 27442867,0.082434659,1.922239872\H,0,-2.181621271,-0.266735597,3.48589
 1445\H,0,0.771321778,0.49757316,2.637244762\H,0,1.211787813,-1.1559691
 37,2.169248017\H,0,0.259235736,-0.873951159,3.622393349\\Version=EM64L
 -G09RevC.01\State=1-A\HF=-459.6205952\RMSD=7.474e-09\Dipole=0.3926687,
 0.1841726,-0.2897894\Quadrupole=-0.0775847,-0.3722654,0.4498502,-2.268
 0963,-0.381863,1.236175\PG=C01 [X(C10H20O1)]\\@


 THOUGH I SPEAK WITH THE TONGUES OF MEN AND OF ANGELS, 
 AND HAVE NOT LOVE,
 I AM BECOME AS SOUNDING BRASS, A TINKLING CYMBAL.
 AND THOUGH I HAVE THE GIFT OF PROPHECY,
 AND UNDERSTAND ALL MYSTERIES, AND ALL KNOWLEDGE.
 AND THOUGH I HAVE ALL FAITH, SO THAT I COULD REMOVE MOUNTAINS,
 AND HAVE NOT LOVE, I AM NOTHING.
 AND THOUGH I BESTOW ALL MY GOODS TO FEED THE POOR,
 AND THOUGH I GIVE MY BODY TO BE BURNED,
 AND HAVE NOT LOVE IT PROFITETH ME NOTHING.
 LOVE SUFFERETH LONG, AND IS KIND,
 LOVE ENVIETH NOT,
 LOVE VAUNTETH NOT ITSELF, IS NOT PUFFED UP,
 DOTH NOT BEHAVE ITSELF UNSEEMLY, SEEKETH NOT HER OWN,
 IS NOT EASILY PROVOKED, THINKETH NO EVIL,
 REJOICETH NOT IN INIQUITY, BUT REJOICETH IN THE TRUTH,
 BEARETH ALL THINGS, BELIEVETH ALL THINGS,
 HOPETH ALL THINGS, ENDURETH ALL THINGS.
 LOVE NEVER FAILETH, BUT WHETHER THERE BE PROPHECIES, THEY SHALL FAIL, 
 WHETHER THERE BE TONGUES, THEY SHALL CEASE,
 WHETHER THERE BE KNOWLEDGE, IT SHALL VANISH AWAY.
 FOR WE KNOW IN PART, AND WE PROPHESY IN PART.
 BUT WHEN THAT WHICH IS PERFECT IS COME, THEN THAT WHICH IS IN PART 
 SHALL BE DONE AWAY. 
 WHEN I WAS A CHILD, I SPAKE AS A CHILD, I UNDERSTOOD AS A CHILD, 
 I THOUGHT AS A CHILD.
 BUT WHEN I BECAME A MAN, I PUT AWAY CHILDISH THINGS.
 FOR NOW WE SEE THROUGH A GLASS, DARKLY, BUT THEN FACE TO FACE.
 NOW I KNOW IN PART. BUT THEN SHALL I KNOW EVEN AS ALSO I AM KNOWN.
 AND NOW ABIDETH FAITH, HOPE AND LOVE, THESE THREE.
 BUT THE GREATEST OF THESE IS LOVE.

                     I CORINTHIANS 13
 Job cpu time:  0 days  0 hours  0 minutes 24.1 seconds.
 File lengths (MBytes):  RWF=      5 Int=      0 D2E=      0 Chk=      1 Scr=      1
 Normal termination of Gaussian 09 at Tue Aug  3 16:36:03 2021.
