 Entering Gaussian System, Link 0=g09
 Input=/home/ytsai.iquir/menthol/03_menthol_M0088_MMFF_NMR_rhf_STO-3G_nbo.gjc
 Output=/home/ytsai.iquir/menthol/03_menthol_M0088_MMFF_NMR_rhf_STO-3G_nbo.log
 Initial command:
 /share/apps/Gaussian09/EM64T.SSE4.2-enabled/g09/l1.exe /tmp/Gau-712.inp -scrdir=/tmp/
 Entering Link 1 = /share/apps/Gaussian09/EM64T.SSE4.2-enabled/g09/l1.exe PID=       713.
  
 Copyright (c) 1988,1990,1992,1993,1995,1998,2003,2009,2011,
            Gaussian, Inc.  All Rights Reserved.
  
 This is part of the Gaussian(R) 09 program.  It is based on
 the Gaussian(R) 03 system (copyright 2003, Gaussian, Inc.),
 the Gaussian(R) 98 system (copyright 1998, Gaussian, Inc.),
 the Gaussian(R) 94 system (copyright 1995, Gaussian, Inc.),
 the Gaussian 92(TM) system (copyright 1992, Gaussian, Inc.),
 the Gaussian 90(TM) system (copyright 1990, Gaussian, Inc.),
 the Gaussian 88(TM) system (copyright 1988, Gaussian, Inc.),
 the Gaussian 86(TM) system (copyright 1986, Carnegie Mellon
 University), and the Gaussian 82(TM) system (copyright 1983,
 Carnegie Mellon University). Gaussian is a federally registered
 trademark of Gaussian, Inc.
  
 This software contains proprietary and confidential information,
 including trade secrets, belonging to Gaussian, Inc.
  
 This software is provided under written license and may be
 used, copied, transmitted, or stored only in accord with that
 written license.
  
 The following legend is applicable only to US Government
 contracts under FAR:
  
                    RESTRICTED RIGHTS LEGEND
  
 Use, reproduction and disclosure by the US Government is
 subject to restrictions as set forth in subparagraphs (a)
 and (c) of the Commercial Computer Software - Restricted
 Rights clause in FAR 52.227-19.
  
 Gaussian, Inc.
 340 Quinnipiac St., Bldg. 40, Wallingford CT 06492
  
  
 ---------------------------------------------------------------
 Warning -- This program may not be used in any manner that
 competes with the business of Gaussian, Inc. or will provide
 assistance to any competitor of Gaussian, Inc.  The licensee
 of this program is prohibited from giving any competitor of
 Gaussian, Inc. access to this program.  By using this program,
 the user acknowledges that Gaussian, Inc. is engaged in the
 business of creating and licensing software in the field of
 computational chemistry and represents and warrants to the
 licensee that it is not a competitor of Gaussian, Inc. and that
 it will not use this program in any manner prohibited above.
 ---------------------------------------------------------------
  

 Cite this work as:
 Gaussian 09, Revision C.01,
 M. J. Frisch, G. W. Trucks, H. B. Schlegel, G. E. Scuseria, 
 M. A. Robb, J. R. Cheeseman, G. Scalmani, V. Barone, B. Mennucci, 
 G. A. Petersson, H. Nakatsuji, M. Caricato, X. Li, H. P. Hratchian, 
 A. F. Izmaylov, J. Bloino, G. Zheng, J. L. Sonnenberg, M. Hada, 
 M. Ehara, K. Toyota, R. Fukuda, J. Hasegawa, M. Ishida, T. Nakajima, 
 Y. Honda, O. Kitao, H. Nakai, T. Vreven, J. A. Montgomery, Jr., 
 J. E. Peralta, F. Ogliaro, M. Bearpark, J. J. Heyd, E. Brothers, 
 K. N. Kudin, V. N. Staroverov, T. Keith, R. Kobayashi, J. Normand, 
 K. Raghavachari, A. Rendell, J. C. Burant, S. S. Iyengar, J. Tomasi, 
 M. Cossi, N. Rega, J. M. Millam, M. Klene, J. E. Knox, J. B. Cross, 
 V. Bakken, C. Adamo, J. Jaramillo, R. Gomperts, R. E. Stratmann, 
 O. Yazyev, A. J. Austin, R. Cammi, C. Pomelli, J. W. Ochterski, 
 R. L. Martin, K. Morokuma, V. G. Zakrzewski, G. A. Voth, 
 P. Salvador, J. J. Dannenberg, S. Dapprich, A. D. Daniels, 
 O. Farkas, J. B. Foresman, J. V. Ortiz, J. Cioslowski, 
 and D. J. Fox, Gaussian, Inc., Wallingford CT, 2010.
 
 ******************************************
 Gaussian 09:  EM64L-G09RevC.01 23-Sep-2011
                 3-Aug-2021 
 ******************************************
 %nprocshared=4
 Will use up to    4 processors via shared memory.
 ------------------------
 # rhf/STO-3G nmr pop=nbo
 ------------------------
 1/38=1/1;
 2/12=2,17=6,18=5,40=1/2;
 3/6=3,11=1,16=1,25=1,30=1,116=1/1,2,8,3;
 4//1;
 5/5=2,38=5/2;
 8/6=1,10=90,11=11/1;
 10/13=100,45=16/2;
 6/7=2,8=2,9=2,10=2,28=1,64=1/1,7;
 99/9=1/99;
 -------
 comment
 -------
 Charge =  0 Multiplicity = 1
 Symbolic Z-Matrix:
 6                    -2.06583  -0.19765  -3.05845 
 6                    -1.5212   -0.15377  -1.63248 
 6                     0.65003  -0.70752  -0.35878 
 6                    -0.7022    1.34345   0.2388 
 6                    -0.05676   0.04564   0.78356 
 6                    -1.13243   1.26673  -1.22879 
 6                    -0.33249  -1.11267  -1.46993 
 8                     1.29168  -1.88405   0.11642 
 6                     0.80827   0.36259   2.04036 
 6                     2.18171   0.95438   1.71119 
 6                     0.97544  -0.84952   2.96365 
 1                    -1.31946   0.14942  -3.78106 
 1                    -2.35538  -1.2178   -3.33172 
 1                    -2.95099   0.4398   -3.15533 
 1                    -2.32548  -0.48893  -0.9634 
 1                     1.42677  -0.06376  -0.7898 
 1                    -0.02995   2.20181   0.34978 
 1                    -1.58035   1.57148   0.85715 
 1                    -0.87985  -0.59639   1.13131 
 1                    -0.30732   1.61473  -1.86416 
 1                    -1.96475   1.96085  -1.39607 
 1                     0.2349   -1.18947  -2.40713 
 1                    -0.71749  -2.12515  -1.28865 
 1                     1.7371   -2.30219  -0.64015 
 1                     0.26223   1.11402   2.62786 
 1                     2.82809   0.22561   1.21175 
 1                     2.09764   1.83358   1.06596 
 1                     2.691     1.26879   2.62895 
 1                     1.62291  -1.617     2.53184 
 1                     0.00666  -1.30472   3.1938 
 1                     1.42751  -0.54226   3.91349 
 
                          Input orientation:                          
 ---------------------------------------------------------------------
 Center     Atomic      Atomic             Coordinates (Angstroms)
 Number     Number       Type             X           Y           Z
 ---------------------------------------------------------------------
      1          6           0       -2.065833   -0.197649   -3.058454
      2          6           0       -1.521201   -0.153773   -1.632481
      3          6           0        0.650031   -0.707516   -0.358778
      4          6           0       -0.702201    1.343450    0.238799
      5          6           0       -0.056758    0.045636    0.783563
      6          6           0       -1.132435    1.266727   -1.228790
      7          6           0       -0.332487   -1.112665   -1.469926
      8          8           0        1.291677   -1.884048    0.116423
      9          6           0        0.808268    0.362590    2.040358
     10          6           0        2.181706    0.954376    1.711194
     11          6           0        0.975435   -0.849523    2.963654
     12          1           0       -1.319462    0.149415   -3.781058
     13          1           0       -2.355375   -1.217804   -3.331716
     14          1           0       -2.950991    0.439796   -3.155328
     15          1           0       -2.325475   -0.488928   -0.963403
     16          1           0        1.426772   -0.063760   -0.789796
     17          1           0       -0.029949    2.201809    0.349782
     18          1           0       -1.580355    1.571478    0.857146
     19          1           0       -0.879849   -0.596393    1.131313
     20          1           0       -0.307324    1.614728   -1.864161
     21          1           0       -1.964745    1.960846   -1.396070
     22          1           0        0.234899   -1.189466   -2.407128
     23          1           0       -0.717494   -2.125154   -1.288648
     24          1           0        1.737096   -2.302194   -0.640146
     25          1           0        0.262235    1.114017    2.627862
     26          1           0        2.828092    0.225614    1.211748
     27          1           0        2.097639    1.833578    1.065957
     28          1           0        2.691005    1.268791    2.628949
     29          1           0        1.622906   -1.616997    2.531838
     30          1           0        0.006665   -1.304718    3.193803
     31          1           0        1.427511   -0.542265    3.913491
 ---------------------------------------------------------------------
                    Distance matrix (angstroms):
                    1          2          3          4          5
     1  C    0.000000
     2  C    1.527072   0.000000
     3  C    3.863176   2.577440   0.000000
     4  C    3.886690   2.532613   2.528259   0.000000
     5  C    4.342426   2.832247   1.540044   1.548446   0.000000
     6  C    2.522558   1.527065   2.798525   1.531276   2.587992
     7  C    2.522928   1.535884   1.537575   3.014786   2.548706
     8  O    4.919010   3.736950   1.421883   3.795691   2.446841
     9  C    5.879813   4.379817   2.631734   2.547394   1.558289
    10  C    6.489861   5.110741   3.064751   3.261326   2.587862
    11  C    6.777908   5.276525   3.341349   3.879231   2.572845
    12  H    1.095299   2.179221   4.040449   4.238630   4.737188
    13  H    1.095091   2.171499   4.258077   4.694847   4.880107
    14  H    1.095091   2.171564   4.701529   4.170581   4.903754
    15  H    2.131078   1.098567   3.044173   2.727255   2.912855
    16  H    4.166896   3.067371   1.097053   2.751505   2.165246
    17  H    4.638781   3.420813   3.070603   1.095910   2.199537
    18  H    4.324052   3.029560   3.412757   1.097954   2.157534
    19  H    4.372608   2.871550   2.138517   2.142692   1.100277
    20  H    2.793457   2.157492   2.928400   2.156840   3.087924
    21  H    2.726323   2.173531   3.877266   2.155920   3.472642
    22  H    2.588686   2.180968   2.144841   3.780840   3.433810
    23  H    2.943723   2.156503   2.178182   3.790059   3.072940
    24  H    4.973891   4.027026   1.950352   4.473638   3.279812
    25  H    6.282878   4.789411   3.519714   2.586580   2.155141
    26  H    6.508785   5.210559   2.842752   3.828728   2.922002
    27  H    6.202511   4.932254   3.253091   2.960324   2.813878
    28  H    7.558075   6.158421   4.122848   4.151173   3.528705
    29  H    6.846364   5.419223   3.182656   4.407765   2.939743
    30  H    6.679189   5.191538   3.659427   4.030798   2.763465
    31  H    7.805782   6.293142   4.345581   4.647037   3.513564
                    6          7          8          9         10
     6  C    0.000000
     7  C    2.521819   0.000000
     8  O    4.196820   2.397800   0.000000
     9  C    3.907828   3.974896   2.997097   0.000000
    10  C    4.441238   4.551193   3.375218   1.531304   0.000000
    11  C    5.147642   4.629961   3.045812   1.532854   2.505554
    12  H    2.792389   2.812169   5.113059   6.201738   6.562848
    13  H    3.477179   2.751253   5.063056   6.431599   7.122810
    14  H    2.775340   3.479551   5.839935   6.413512   7.091714
    15  H    2.139182   2.148864   4.024447   4.423575   5.436109
    16  H    2.917611   2.158187   2.037874   2.928155   2.803833
    17  H    2.140501   3.793232   4.300625   2.635029   2.881137
    18  H    2.155142   3.765245   4.553888   2.926930   3.906830
    19  H    3.017466   2.707875   2.720952   2.143770   3.480556
    20  H    1.098002   2.755854   4.326771   4.249431   4.406189
    21  H    1.096597   3.480833   5.260716   4.696069   5.278365
    22  H    3.048108   1.098259   2.822682   4.745288   5.034550
    23  H    3.417691   1.098282   2.463559   4.427087   5.185356
    24  H    4.617131   2.527189   0.972441   3.892158   4.041253
    25  H    4.103923   4.701454   4.044189   1.099070   2.133105
    26  H    4.767171   4.355644   2.830368   2.187475   1.094694
    27  H    4.002569   4.584383   3.920705   2.185347   1.093799
    28  H    5.431468   5.622598   4.267469   2.170791   1.095680
    29  H    5.481796   4.482413   2.452602   2.196350   2.756388
    30  H    5.241107   4.679987   3.384840   2.180120   3.468781
    31  H    6.022361   5.692463   4.029461   2.170450   2.767464
                   11         12         13         14         15
    11  C    0.000000
    12  H    7.194134   0.000000
    13  H    7.131733   1.773221   0.000000
    14  H    7.383841   1.771368   1.770172   0.000000
    15  H    5.142744   3.059203   2.478117   2.461368   0.000000
    16  H    3.861284   4.066312   4.700831   5.001412   3.780247
    17  H    4.141709   4.789468   5.536677   4.891112   3.772792
    18  H    4.102522   4.858319   5.091888   4.388542   2.848663
    19  H    2.619853   4.988073   4.741514   4.872228   2.547395
    20  H    5.570081   2.616498   3.790972   3.168052   3.051175
    21  H    5.962385   3.063632   3.742076   2.526116   2.513706
    22  H    5.432242   2.469074   2.750488   3.655707   3.021690
    23  H    4.751349   3.427555   2.771293   3.879687   2.317029
    24  H    3.959514   5.021778   5.016849   5.985216   4.460595
    25  H    2.115869   6.671317   6.914177   6.650164   4.707745
    26  H    2.767207   6.491234   7.042362   7.246726   5.639247
    27  H    3.472698   6.164944   6.962743   6.726852   5.392242
    28  H    2.746354   7.643627   8.196257   8.122635   6.415578
    29  H    1.093023   7.185429   7.096995   7.582531   5.392491
    30  H    1.094846   7.247192   6.940403   7.218208   4.835985
    31  H    1.095888   8.199413   8.201196   8.372809   6.154011
                   16         17         18         19         20
    16  H    0.000000
    17  H    2.924633   0.000000
    18  H    3.798584   1.748855   0.000000
    19  H    3.048747   3.027053   2.294676   0.000000
    20  H    2.641718   2.307194   3.004661   3.766922   0.000000
    21  H    3.996122   2.617155   2.318695   3.755547   1.756688
    22  H    2.302941   4.378520   4.644722   3.756988   2.907288
    23  H    3.015970   4.677582   4.360511   2.866999   3.806070
    24  H    2.264791   4.938465   5.315326   3.591131   4.584773
    25  H    3.797853   2.541320   2.596120   2.543524   4.555587
    26  H    2.460409   3.580046   4.622932   3.798815   4.606700
    27  H    2.737476   2.274891   3.693228   3.843757   3.797016
    28  H    3.880952   3.669974   4.634157   4.298002   5.412733
    29  H    3.672092   4.698571   4.819942   3.044156   5.787455
    30  H    4.407464   4.515033   4.031266   2.354039   5.848483
    31  H    4.727566   4.728017   4.780838   3.614880   6.406523
                   21         22         23         24         25
    21  H    0.000000
    22  H    3.973052   0.000000
    23  H    4.273473   1.741711   0.000000
    24  H    5.696363   2.572350   2.544977   0.000000
    25  H    4.676386   5.536958   5.176017   4.952331   0.000000
    26  H    5.725647   4.671549   4.934498   3.318071   3.062395
    27  H    4.751919   4.966982   5.398212   4.488361   2.515159
    28  H    6.193200   6.118623   6.203571   4.934456   2.433696
    29  H    6.410980   5.148080   4.509081   3.247155   3.052717
    30  H    5.968023   5.606764   4.614097   4.323021   2.497175
    31  H    6.779706   6.464628   5.845412   4.891708   2.398745
                   26         27         28         29         30
    26  H    0.000000
    27  H    1.772108   0.000000
    28  H    1.765069   1.764657   0.000000
    29  H    2.567163   3.778974   3.078642   0.000000
    30  H    3.772388   4.329990   3.761341   1.774247   0.000000
    31  H    3.138579   3.768575   2.554679   1.761305   1.765812
                   31
    31  H    0.000000
 Stoichiometry    C10H20O
 Framework group  C1[X(C10H20O)]
 Deg. of freedom    87
 Full point group                 C1      NOp   1
 Largest Abelian subgroup         C1      NOp   1
 Largest concise Abelian subgroup C1      NOp   1
                         Standard orientation:                         
 ---------------------------------------------------------------------
 Center     Atomic      Atomic             Coordinates (Angstroms)
 Number     Number       Type             X           Y           Z
 ---------------------------------------------------------------------
      1          6           0       -3.715474    0.128795   -0.094247
      2          6           0       -2.228387   -0.060323   -0.385374
      3          6           0        0.045792    0.836226    0.431638
      4          6           0       -0.239413   -1.609303   -0.142944
      5          6           0        0.590812   -0.330458   -0.413071
      6          6           0       -1.696951   -1.345492    0.245374
      7          6           0       -1.418240    1.155889    0.087310
      8          8           0        0.814384    2.017017    0.239930
      9          6           0        2.111728   -0.636720   -0.267188
     10          6           0        2.594033   -0.690648    1.185178
     11          6           0        2.989086    0.332396   -1.067624
     12          1           0       -3.905453    0.196207    0.982342
     13          1           0       -4.089052    1.044904   -0.563722
     14          1           0       -4.297565   -0.711291   -0.487501
     15          1           0       -2.115265   -0.144671   -1.474842
     16          1           0        0.110724    0.573770    1.494853
     17          1           0        0.214602   -2.222381    0.643838
     18          1           0       -0.217577   -2.226454   -1.050771
     19          1           0        0.430889   -0.065390   -1.468899
     20          1           0       -1.770660   -1.274106    1.338571
     21          1           0       -2.308937   -2.206266   -0.049696
     22          1           0       -1.880048    1.608301    0.975132
     23          1           0       -1.467424    1.935066   -0.685146
     24          1           0        0.439645    2.708076    0.812336
     25          1           0        2.285274   -1.629764   -0.705025
     26          1           0        2.549160    0.292700    1.664101
     27          1           0        1.998667   -1.387606    1.781990
     28          1           0        3.635384   -1.028617    1.228548
     29          1           0        3.001553    1.336952   -0.637029
     30          1           0        2.647738    0.405852   -2.105300
     31          1           0        4.025353   -0.023590   -1.087534
 ---------------------------------------------------------------------
 Rotational constants (GHZ):      1.9220884      0.6830559      0.5819592
 Standard basis: STO-3G (5D, 7F)
 There are    75 symmetry adapted basis functions of A   symmetry.
 Integral buffers will be    131072 words long.
 Raffenetti 1 integral format.
 Two-electron integral symmetry is turned on.
    75 basis functions,   225 primitive gaussians,    75 cartesian basis functions
    44 alpha electrons       44 beta electrons
       nuclear repulsion energy       691.6185441068 Hartrees.
 NAtoms=   31 NActive=   31 NUniq=   31 SFac= 1.00D+00 NAtFMM=   60 NAOKFM=F Big=F
 One-electron integrals computed using PRISM.
 NBasis=    75 RedAO= T  NBF=    75
 NBsUse=    75 1.00D-06 NBFU=    75
 Harris functional with IExCor=  205 diagonalized for initial guess.
 ExpMin= 1.69D-01 ExpMax= 1.31D+02 ExpMxC= 1.31D+02 IAcc=1 IRadAn=         1 AccDes= 0.00D+00
 HarFok:  IExCor=  205 AccDes= 0.00D+00 IRadAn=         1 IDoV= 1
 ScaDFX=  1.000000  1.000000  1.000000  1.000000
 FoFCou: FMM=F IPFlag=           0 FMFlag=      100000 FMFlg1=           0
         NFxFlg=           0 DoJE=T BraDBF=F KetDBF=T FulRan=T
         Omega=  0.000000  0.000000  1.000000  0.000000  0.000000 ICntrl=     500 IOpCl=  0
         NMat0=    1 NMatS0=    1 NMatT0=    0 NMatD0=    1 NMtDS0=    0 NMtDT0=    0
         I1Cent=           4 NGrid=           0.
 Petite list used in FoFCou.
 Initial guess orbital symmetries:
       Occupied  (A) (A) (A) (A) (A) (A) (A) (A) (A) (A) (A) (A)
                 (A) (A) (A) (A) (A) (A) (A) (A) (A) (A) (A) (A)
                 (A) (A) (A) (A) (A) (A) (A) (A) (A) (A) (A) (A)
                 (A) (A) (A) (A) (A) (A) (A) (A)
       Virtual   (A) (A) (A) (A) (A) (A) (A) (A) (A) (A) (A) (A)
                 (A) (A) (A) (A) (A) (A) (A) (A) (A) (A) (A) (A)
                 (A) (A) (A) (A) (A) (A) (A)
 The electronic state of the initial guess is 1-A.
 Requested convergence on RMS density matrix=1.00D-08 within 128 cycles.
 Requested convergence on MAX density matrix=1.00D-06.
 Requested convergence on             energy=1.00D-06.
 No special actions if energy rises.
 Keep R1 ints in memory in canonical form, NReq=4898789.
 SCF Done:  E(RHF) =  -459.612187459     A.U. after   10 cycles
             Convg  =    0.4876D-08             -V/T =  2.0089
 Range of M.O.s used for correlation:     1    75
 NBasis=    75 NAE=    44 NBE=    44 NFC=     0 NFV=     0
 NROrb=     75 NOA=    44 NOB=    44 NVA=    31 NVB=    31
          Differentiating once with respect to magnetic field using GIAOs.
          Electric field/nuclear overlap derivatives assumed to be zero.
          Keep R3 ints in memory in canonical form, NReq=4863575.
 FoFCou: FMM=F IPFlag=           0 FMFlag=           0 FMFlg1=           0
         NFxFlg=           0 DoJE=F BraDBF=F KetDBF=T FulRan=T
         Omega=  0.000000  0.000000  1.000000  0.000000  0.000000 ICntrl=    6100 IOpCl=  0
         NMat0=    1 NMatS0=    1 NMatT0=    0 NMatD0=    1 NMtDS0=    0 NMtDT0=    0
         I1Cent=           7 NGrid=          31.
 Symmetry not used in FoFCou.
          There are     3 degrees of freedom in the 1st order CPHF.  IDoFFX=0.
      3 vectors produced by pass  0 Test12= 4.55D-14 3.33D-08 XBig12= 7.60D+00 4.85D-01.
 AX will form     3 AO Fock derivatives at one time.
      3 vectors produced by pass  1 Test12= 4.55D-14 3.33D-08 XBig12= 1.16D-02 1.63D-02.
      3 vectors produced by pass  2 Test12= 4.55D-14 3.33D-08 XBig12= 7.64D-05 3.09D-03.
      3 vectors produced by pass  3 Test12= 4.55D-14 3.33D-08 XBig12= 1.55D-06 4.39D-04.
      3 vectors produced by pass  4 Test12= 4.55D-14 3.33D-08 XBig12= 1.64D-08 1.69D-05.
      3 vectors produced by pass  5 Test12= 4.55D-14 3.33D-08 XBig12= 1.99D-10 1.74D-06.
      3 vectors produced by pass  6 Test12= 4.55D-14 3.33D-08 XBig12= 1.86D-12 1.85D-07.
 Inverted reduced A of dimension    21 with in-core refinement.
 Calculating GIAO nuclear magnetic shielding tensors.
 SCF GIAO Magnetic shielding tensor (ppm):
      1  C    Isotropic =   221.2016   Anisotropy =    27.6444
   XX=   239.3307   YX=    -1.3412   ZX=    -0.4934
   XY=    -2.6349   YY=   212.3829   ZY=     1.4872
   XZ=    -3.2315   YZ=     4.1024   ZZ=   211.8913
   Eigenvalues:   209.3315   214.6421   239.6312
      2  C    Isotropic =   216.7144   Anisotropy =    10.0229
   XX=   223.2018   YX=    -0.1442   ZX=     1.7986
   XY=    -0.1958   YY=   218.7834   ZY=    -1.6267
   XZ=     1.4807   YZ=    -0.5359   ZZ=   208.1579
   Eigenvalues:   207.8788   218.8680   223.3963
      3  C    Isotropic =   188.8388   Anisotropy =    42.6314
   XX=   191.8067   YX=    17.1777   ZX=    -5.8065
   XY=    14.7648   YY=   207.0297   ZY=     1.7519
   XZ=    -4.8982   YZ=    -1.3903   ZZ=   167.6800
   Eigenvalues:   166.1634   183.0933   217.2597
      4  C    Isotropic =   217.0242   Anisotropy =    21.1515
   XX=   228.9658   YX=     2.7555   ZX=    -3.0191
   XY=     5.1578   YY=   221.6140   ZY=     0.3690
   XZ=    -4.4953   YZ=    -1.3643   ZZ=   200.4928
   Eigenvalues:   200.0054   219.9421   231.1252
      5  C    Isotropic =   210.5312   Anisotropy =    18.1089
   XX=   222.5715   YX=    -0.0816   ZX=     0.7448
   XY=    -0.4745   YY=   205.9674   ZY=     3.3872
   XZ=     0.7867   YZ=     0.7048   ZZ=   203.0549
   Eigenvalues:   201.9681   207.0218   222.6039
      6  C    Isotropic =   217.4233   Anisotropy =    17.4971
   XX=   224.4963   YX=    -4.4280   ZX=     0.1185
   XY=    -7.1136   YY=   220.3551   ZY=    -5.0538
   XZ=     1.2149   YZ=    -4.5726   ZZ=   207.4185
   Eigenvalues:   205.7409   217.4410   229.0880
      7  C    Isotropic =   213.4493   Anisotropy =    27.5804
   XX=   229.4105   YX=     6.2220   ZX=     4.9342
   XY=     5.3236   YY=   213.3031   ZY=     2.5393
   XZ=     3.2536   YZ=     0.8557   ZZ=   197.6343
   Eigenvalues:   197.0548   211.4568   231.8362
      8  O    Isotropic =   356.9020   Anisotropy =    77.4882
   XX=   352.3239   YX=   -41.7181   ZX=    -9.3498
   XY=   -17.3323   YY=   365.3799   ZY=    24.1398
   XZ=   -13.0304   YZ=    40.9533   ZZ=   353.0021
   Eigenvalues:   320.6427   341.5025   408.5608
      9  C    Isotropic =   212.5721   Anisotropy =    17.9247
   XX=   224.4545   YX=    -0.7935   ZX=    -2.4006
   XY=    -1.1564   YY=   207.4098   ZY=    -3.2616
   XZ=     1.1782   YZ=    -1.9026   ZZ=   205.8520
   Eigenvalues:   203.8779   209.3165   224.5219
     10  C    Isotropic =   224.0307   Anisotropy =    19.7894
   XX=   220.6675   YX=    -2.5994   ZX=     7.1319
   XY=    -0.9514   YY=   216.7932   ZY=    -1.6494
   XZ=     4.7531   YZ=    -3.1739   ZZ=   234.6314
   Eigenvalues:   216.1018   218.7666   237.2236
     11  C    Isotropic =   220.1818   Anisotropy =    27.9982
   XX=   223.7027   YX=     7.7454   ZX=    -9.8798
   XY=    10.1063   YY=   215.6478   ZY=   -11.7754
   XZ=    -6.6302   YZ=    -9.2149   ZZ=   221.1949
   Eigenvalues:   207.1538   214.5443   238.8472
     12  H    Isotropic =    32.7621   Anisotropy =    11.5601
   XX=    34.0615   YX=    -0.9543   ZX=    -4.7430
   XY=    -0.8131   YY=    27.5853   ZY=     1.0437
   XZ=    -4.8676   YZ=     1.0230   ZZ=    36.6396
   Eigenvalues:    27.4404    30.3771    40.4689
     13  H    Isotropic =    32.4147   Anisotropy =    13.5095
   XX=    35.1375   YX=    -5.3122   ZX=     2.9866
   XY=    -5.1838   YY=    34.1258   ZY=    -3.7888
   XZ=     2.6552   YZ=    -3.4073   ZZ=    27.9806
   Eigenvalues:    26.2958    29.5272    41.4210
     14  H    Isotropic =    32.4998   Anisotropy =    14.0454
   XX=    37.5357   YX=     5.2788   ZX=     3.2299
   XY=     4.9543   YY=    32.4130   ZY=     2.7126
   XZ=     2.9792   YZ=     2.7689   ZZ=    27.5506
   Eigenvalues:    26.2360    29.4000    41.8634
     15  H    Isotropic =    32.5216   Anisotropy =    10.7520
   XX=    31.2186   YX=    -0.3814   ZX=     1.3504
   XY=    -0.4930   YY=    26.8532   ZY=     0.7102
   XZ=     1.0391   YZ=     0.6105   ZZ=    39.4932
   Eigenvalues:    26.7616    31.1137    39.6896
     16  H    Isotropic =    32.0715   Anisotropy =     6.4025
   XX=    31.1516   YX=    -0.4561   ZX=     0.4505
   XY=    -1.1449   YY=    28.9249   ZY=    -0.2479
   XZ=     1.5881   YZ=     0.3425   ZZ=    36.1379
   Eigenvalues:    28.6491    31.2255    36.3398
     17  H    Isotropic =    32.4715   Anisotropy =    11.1800
   XX=    33.7465   YX=    -1.7711   ZX=     2.6467
   XY=    -1.9474   YY=    34.1716   ZY=    -5.9687
   XZ=     2.6868   YZ=    -6.3093   ZZ=    29.4963
   Eigenvalues:    25.1013    32.3884    39.9248
     18  H    Isotropic =    32.2399   Anisotropy =    13.4172
   XX=    30.0248   YX=     0.9621   ZX=    -1.2440
   XY=     0.6160   YY=    34.5695   ZY=     7.8112
   XZ=    -1.1421   YZ=     7.6659   ZZ=    32.1255
   Eigenvalues:    25.1034    30.4317    41.1848
     19  H    Isotropic =    32.2777   Anisotropy =     8.7845
   XX=    32.2741   YX=     0.0711   ZX=     0.3129
   XY=    -0.1159   YY=    26.7104   ZY=    -1.7894
   XZ=    -0.4130   YZ=    -1.8195   ZZ=    37.8486
   Eigenvalues:    26.4252    32.2739    38.1340
     20  H    Isotropic =    32.8475   Anisotropy =    10.7305
   XX=    31.1603   YX=    -0.2074   ZX=    -2.4357
   XY=    -0.1393   YY=    28.9201   ZY=    -2.9196
   XZ=    -2.4780   YZ=    -3.3367   ZZ=    38.4621
   Eigenvalues:    27.7320    30.8094    40.0012
     21  H    Isotropic =    32.4832   Anisotropy =    14.1675
   XX=    34.4051   YX=     5.4437   ZX=     1.0313
   XY=     5.2599   YY=    37.8196   ZY=     1.4775
   XZ=     0.8902   YZ=     1.6261   ZZ=    25.2249
   Eigenvalues:    25.0231    30.4983    41.9282
     22  H    Isotropic =    32.7375   Anisotropy =    11.3563
   XX=    34.0380   YX=    -2.2114   ZX=    -2.7685
   XY=    -1.9969   YY=    31.7823   ZY=     6.0927
   XZ=    -3.0751   YZ=     6.2654   ZZ=    32.3921
   Eigenvalues:    25.8670    32.0370    40.3083
     23  H    Isotropic =    32.1922   Anisotropy =    11.6930
   XX=    30.5368   YX=    -0.1549   ZX=     2.5449
   XY=    -0.4247   YY=    36.2072   ZY=    -5.9930
   XZ=     1.9870   YZ=    -5.9096   ZZ=    29.8327
   Eigenvalues:    25.5973    30.9918    39.9876
     24  H    Isotropic =    34.9256   Anisotropy =    19.0314
   XX=    31.0124   YX=    -0.8518   ZX=    -3.5588
   XY=     0.4364   YY=    43.4118   ZY=     7.8989
   XZ=    -2.4393   YZ=     8.7831   ZZ=    30.3526
   Eigenvalues:    25.1180    32.0456    47.6132
     25  H    Isotropic =    32.4865   Anisotropy =    11.8421
   XX=    31.7572   YX=    -2.3724   ZX=    -2.1778
   XY=    -2.3422   YY=    37.2123   ZY=     5.0424
   XZ=    -2.0535   YZ=     4.5173   ZZ=    28.4900
   Eigenvalues:    26.1826    30.8958    40.3812
     26  H    Isotropic =    32.4412   Anisotropy =     9.4215
   XX=    30.1967   YX=    -0.5996   ZX=     2.6901
   XY=    -0.5010   YY=    33.8853   ZY=     4.9528
   XZ=     3.1315   YZ=     4.7058   ZZ=    33.2415
   Eigenvalues:    26.7725    31.8289    38.7222
     27  H    Isotropic =    32.5885   Anisotropy =    10.7530
   XX=    31.9160   YX=     2.2113   ZX=    -0.2723
   XY=     2.1378   YY=    31.3185   ZY=    -6.0741
   XZ=    -0.2772   YZ=    -6.5602   ZZ=    34.5311
   Eigenvalues:    25.9897    32.0187    39.7572
     28  H    Isotropic =    32.4966   Anisotropy =    14.9124
   XX=    39.6631   YX=    -4.4156   ZX=     3.5344
   XY=    -4.3929   YY=    28.0310   ZY=    -1.9194
   XZ=     3.6808   YZ=    -1.9905   ZZ=    29.7958
   Eigenvalues:    26.3405    28.7111    42.4382
     29  H    Isotropic =    31.8503   Anisotropy =     9.5038
   XX=    31.1009   YX=     2.4974   ZX=    -2.2596
   XY=     2.6219   YY=    37.2099   ZY=     1.5451
   XZ=    -2.2071   YZ=     1.5218   ZZ=    27.2402
   Eigenvalues:    25.6734    31.6914    38.1862
     30  H    Isotropic =    32.4175   Anisotropy =    12.2647
   XX=    30.3700   YX=     0.9338   ZX=    -1.2197
   XY=     0.6264   YY=    26.9961   ZY=    -2.9862
   XZ=    -0.9101   YZ=    -2.5354   ZZ=    39.8865
   Eigenvalues:    26.3524    30.3062    40.5940
     31  H    Isotropic =    32.4333   Anisotropy =    14.9030
   XX=    41.3593   YX=    -1.7020   ZX=    -3.6078
   XY=    -1.3230   YY=    27.4487   ZY=    -0.8282
   XZ=    -3.4541   YZ=    -0.9701   ZZ=    28.4919
   Eigenvalues:    26.2176    28.7137    42.3686
 End of Minotr Frequency-dependent properties file   721 does not exist.
 End of Minotr Frequency-dependent properties file   722 does not exist.

 **********************************************************************

            Population analysis using the SCF density.

 **********************************************************************

 Orbital symmetries:
       Occupied  (A) (A) (A) (A) (A) (A) (A) (A) (A) (A) (A) (A)
                 (A) (A) (A) (A) (A) (A) (A) (A) (A) (A) (A) (A)
                 (A) (A) (A) (A) (A) (A) (A) (A) (A) (A) (A) (A)
                 (A) (A) (A) (A) (A) (A) (A) (A)
       Virtual   (A) (A) (A) (A) (A) (A) (A) (A) (A) (A) (A) (A)
                 (A) (A) (A) (A) (A) (A) (A) (A) (A) (A) (A) (A)
                 (A) (A) (A) (A) (A) (A) (A)
 The electronic state is 1-A.
 Alpha  occ. eigenvalues --  -20.23818 -11.08507 -11.04770 -11.04145 -11.04111
 Alpha  occ. eigenvalues --  -11.03643 -11.03582 -11.03469 -11.03326 -11.02492
 Alpha  occ. eigenvalues --  -11.01695  -1.27961  -1.08132  -1.03303  -0.96704
 Alpha  occ. eigenvalues --   -0.94498  -0.88155  -0.87736  -0.79753  -0.78387
 Alpha  occ. eigenvalues --   -0.73422  -0.67909  -0.63382  -0.60805  -0.58848
 Alpha  occ. eigenvalues --   -0.57225  -0.56703  -0.54328  -0.52548  -0.51947
 Alpha  occ. eigenvalues --   -0.50149  -0.49662  -0.48853  -0.47877  -0.46584
 Alpha  occ. eigenvalues --   -0.45885  -0.44625  -0.42648  -0.42017  -0.40613
 Alpha  occ. eigenvalues --   -0.39009  -0.38462  -0.36198  -0.33088
 Alpha virt. eigenvalues --    0.53148   0.55277   0.56565   0.60151   0.60893
 Alpha virt. eigenvalues --    0.62134   0.62811   0.64625   0.66303   0.66750
 Alpha virt. eigenvalues --    0.67335   0.69772   0.70610   0.71841   0.72405
 Alpha virt. eigenvalues --    0.73107   0.73195   0.73957   0.76144   0.76989
 Alpha virt. eigenvalues --    0.77452   0.77699   0.78643   0.79099   0.80026
 Alpha virt. eigenvalues --    0.81669   0.81893   0.82396   0.85417   0.86010
 Alpha virt. eigenvalues --    0.87943
          Condensed to atoms (all electrons):
              1          2          3          4          5          6
     1  C    4.738945   0.365954   0.000650   0.000737   0.000021  -0.023867
     2  C    0.365954   4.742479  -0.018224  -0.022253  -0.006443   0.364541
     3  C    0.000650  -0.018224   4.740254  -0.021738   0.358369  -0.007043
     4  C    0.000737  -0.022253  -0.021738   4.762307   0.359248   0.361111
     5  C    0.000021  -0.006443   0.358369   0.359248   4.774562  -0.019257
     6  C   -0.023867   0.364541  -0.007043   0.361111  -0.019257   4.757108
     7  C   -0.023995   0.360766   0.356616  -0.002926  -0.021920  -0.023773
     8  O   -0.000001   0.000252   0.268100   0.000208  -0.015958   0.000006
     9  C    0.000000   0.000021  -0.017604  -0.021656   0.358723   0.000591
    10  C    0.000000   0.000000  -0.002694  -0.001112  -0.020681   0.000001
    11  C    0.000000   0.000000  -0.000140   0.000658  -0.021517  -0.000004
    12  H    0.382159  -0.020807   0.000014   0.000005   0.000000  -0.002188
    13  H    0.382454  -0.020333   0.000010  -0.000017   0.000000   0.001297
    14  H    0.382367  -0.020255  -0.000016   0.000013   0.000000  -0.002201
    15  H   -0.024587   0.382676   0.000123  -0.002407  -0.000222  -0.024861
    16  H   -0.000014   0.000397   0.375641  -0.002054  -0.025279  -0.000099
    17  H   -0.000016   0.001274  -0.000190   0.382233  -0.020683  -0.023297
    18  H   -0.000009  -0.000096   0.001218   0.382661  -0.022507  -0.022652
    19  H    0.000000  -0.000131  -0.025517  -0.023611   0.380355   0.000046
    20  H   -0.001924  -0.023272  -0.000151  -0.022927   0.000120   0.381495
    21  H   -0.002493  -0.020670   0.000061  -0.021620   0.001095   0.383371
    22  H   -0.005153  -0.021173  -0.023555   0.000012   0.001193  -0.000096
    23  H   -0.000031  -0.021441  -0.021105   0.000042  -0.000294   0.001265
    24  H    0.000000   0.000006  -0.041124  -0.000037   0.002421  -0.000001
    25  H    0.000000   0.000000   0.001053  -0.004343  -0.023605   0.000036
    26  H    0.000000   0.000000  -0.000491   0.000035  -0.001381   0.000000
    27  H    0.000000   0.000000  -0.000125  -0.000515  -0.001832  -0.000015
    28  H    0.000000   0.000000   0.000028   0.000009   0.001134   0.000000
    29  H    0.000000   0.000000  -0.000036  -0.000004  -0.000996   0.000000
    30  H    0.000000   0.000000   0.000020   0.000027  -0.002826   0.000000
    31  H    0.000000   0.000000  -0.000011  -0.000016   0.001170   0.000000
              7          8          9         10         11         12
     1  C   -0.023995  -0.000001   0.000000   0.000000   0.000000   0.382159
     2  C    0.360766   0.000252   0.000021   0.000000   0.000000  -0.020807
     3  C    0.356616   0.268100  -0.017604  -0.002694  -0.000140   0.000014
     4  C   -0.002926   0.000208  -0.021656  -0.001112   0.000658   0.000005
     5  C   -0.021920  -0.015958   0.358723  -0.020681  -0.021517   0.000000
     6  C   -0.023773   0.000006   0.000591   0.000001  -0.000004  -0.002188
     7  C    4.791170  -0.020990   0.000547   0.000008  -0.000005  -0.002300
     8  O   -0.020990   7.846143  -0.000216  -0.000099  -0.001006   0.000000
     9  C    0.000547  -0.000216   4.734205   0.364361   0.364629   0.000000
    10  C    0.000008  -0.000099   0.364361   4.741444  -0.025642   0.000000
    11  C   -0.000005  -0.001006   0.364629  -0.025642   4.743950   0.000000
    12  H   -0.002300   0.000000   0.000000   0.000000   0.000000   0.631322
    13  H   -0.002140   0.000000   0.000000   0.000000   0.000000  -0.021688
    14  H    0.001289   0.000000   0.000000   0.000000   0.000000  -0.021771
    15  H   -0.024063  -0.000002   0.000000   0.000000   0.000000   0.001915
    16  H   -0.027036  -0.019336  -0.001333  -0.000429   0.000006   0.000003
    17  H    0.000016  -0.000003  -0.004330  -0.000506   0.000025   0.000000
    18  H    0.000011  -0.000004  -0.000289   0.000029   0.000000   0.000000
    19  H   -0.002744  -0.000318  -0.023993   0.001132  -0.004313   0.000000
    20  H   -0.002364   0.000000  -0.000008   0.000005   0.000000   0.000391
    21  H    0.001245   0.000000  -0.000010   0.000000   0.000000  -0.000007
    22  H    0.380645   0.000075  -0.000012   0.000000   0.000000   0.000335
    23  H    0.380632  -0.001982  -0.000009   0.000000   0.000000   0.000001
    24  H   -0.002922   0.258054  -0.000002  -0.000002   0.000055   0.000000
    25  H   -0.000013  -0.000006   0.381706  -0.024616  -0.025800   0.000000
    26  H    0.000006   0.000134  -0.020175   0.382643  -0.002556   0.000000
    27  H   -0.000002   0.000007  -0.019877   0.381867   0.001316   0.000000
    28  H    0.000000   0.000000  -0.019950   0.382427  -0.002117   0.000000
    29  H    0.000000   0.000392  -0.019580  -0.002641   0.382856   0.000000
    30  H   -0.000001   0.000019  -0.020234   0.001297   0.382210   0.000000
    31  H    0.000000   0.000013  -0.020397  -0.001806   0.381265   0.000000
             13         14         15         16         17         18
     1  C    0.382454   0.382367  -0.024587  -0.000014  -0.000016  -0.000009
     2  C   -0.020333  -0.020255   0.382676   0.000397   0.001274  -0.000096
     3  C    0.000010  -0.000016   0.000123   0.375641  -0.000190   0.001218
     4  C   -0.000017   0.000013  -0.002407  -0.002054   0.382233   0.382661
     5  C    0.000000   0.000000  -0.000222  -0.025279  -0.020683  -0.022507
     6  C    0.001297  -0.002201  -0.024861  -0.000099  -0.023297  -0.022652
     7  C   -0.002140   0.001289  -0.024063  -0.027036   0.000016   0.000011
     8  O    0.000000   0.000000  -0.000002  -0.019336  -0.000003  -0.000004
     9  C    0.000000   0.000000   0.000000  -0.001333  -0.004330  -0.000289
    10  C    0.000000   0.000000   0.000000  -0.000429  -0.000506   0.000029
    11  C    0.000000   0.000000   0.000000   0.000006   0.000025   0.000000
    12  H   -0.021688  -0.021771   0.001915   0.000003   0.000000   0.000000
    13  H    0.629993  -0.021566  -0.002305   0.000000   0.000000   0.000000
    14  H   -0.021566   0.629923  -0.002397   0.000000  -0.000001   0.000001
    15  H   -0.002305  -0.002397   0.651559  -0.000022   0.000009   0.000287
    16  H    0.000000   0.000000  -0.000022   0.666970   0.000249   0.000001
    17  H    0.000000  -0.000001   0.000009   0.000249   0.643637  -0.024274
    18  H    0.000000   0.000001   0.000287   0.000001  -0.024274   0.646226
    19  H    0.000000   0.000000  -0.000480   0.001968   0.001836  -0.005933
    20  H    0.000000   0.000009   0.002007  -0.000420  -0.005850   0.001960
    21  H    0.000024   0.000210  -0.001964   0.000003   0.000271  -0.005723
    22  H   -0.000095   0.000069   0.001867  -0.005669   0.000002   0.000001
    23  H    0.000207  -0.000023  -0.005635   0.001835   0.000001   0.000001
    24  H    0.000000   0.000000   0.000000  -0.003643   0.000001   0.000001
    25  H    0.000000   0.000000   0.000000  -0.000007  -0.000178   0.000135
    26  H    0.000000   0.000000   0.000000  -0.000742   0.000022  -0.000002
    27  H    0.000000   0.000000   0.000000  -0.000090  -0.000169   0.000015
    28  H    0.000000   0.000000   0.000000   0.000007  -0.000028   0.000000
    29  H    0.000000   0.000000   0.000000   0.000017   0.000000  -0.000001
    30  H    0.000000   0.000000   0.000000  -0.000001   0.000001   0.000004
    31  H    0.000000   0.000000   0.000000   0.000000  -0.000001   0.000000
             19         20         21         22         23         24
     1  C    0.000000  -0.001924  -0.002493  -0.005153  -0.000031   0.000000
     2  C   -0.000131  -0.023272  -0.020670  -0.021173  -0.021441   0.000006
     3  C   -0.025517  -0.000151   0.000061  -0.023555  -0.021105  -0.041124
     4  C   -0.023611  -0.022927  -0.021620   0.000012   0.000042  -0.000037
     5  C    0.380355   0.000120   0.001095   0.001193  -0.000294   0.002421
     6  C    0.000046   0.381495   0.383371  -0.000096   0.001265  -0.000001
     7  C   -0.002744  -0.002364   0.001245   0.380645   0.380632  -0.002922
     8  O   -0.000318   0.000000   0.000000   0.000075  -0.001982   0.258054
     9  C   -0.023993  -0.000008  -0.000010  -0.000012  -0.000009  -0.000002
    10  C    0.001132   0.000005   0.000000   0.000000   0.000000  -0.000002
    11  C   -0.004313   0.000000   0.000000   0.000000   0.000000   0.000055
    12  H    0.000000   0.000391  -0.000007   0.000335   0.000001   0.000000
    13  H    0.000000   0.000000   0.000024  -0.000095   0.000207   0.000000
    14  H    0.000000   0.000009   0.000210   0.000069  -0.000023   0.000000
    15  H   -0.000480   0.002007  -0.001964   0.001867  -0.005635   0.000000
    16  H    0.001968  -0.000420   0.000003  -0.005669   0.001835  -0.003643
    17  H    0.001836  -0.005850   0.000271   0.000002   0.000001   0.000001
    18  H   -0.005933   0.001960  -0.005723   0.000001   0.000001   0.000001
    19  H    0.651847  -0.000024  -0.000017   0.000014   0.000231  -0.000014
    20  H   -0.000024   0.648819  -0.023927   0.000286   0.000007   0.000000
    21  H   -0.000017  -0.023927   0.638514  -0.000020  -0.000033   0.000000
    22  H    0.000014   0.000286  -0.000020   0.651885  -0.025007   0.000253
    23  H    0.000231   0.000007  -0.000033  -0.025007   0.635616  -0.000037
    24  H   -0.000014   0.000000   0.000000   0.000253  -0.000037   0.610020
    25  H   -0.000809   0.000000  -0.000002   0.000000   0.000000   0.000001
    26  H    0.000001  -0.000001   0.000000   0.000001   0.000000   0.000006
    27  H    0.000008   0.000008   0.000001   0.000000   0.000000   0.000000
    28  H   -0.000029   0.000000   0.000000   0.000000   0.000000   0.000000
    29  H    0.000027   0.000000   0.000000   0.000000   0.000001   0.000007
    30  H    0.000164   0.000000   0.000000   0.000000   0.000000  -0.000002
    31  H    0.000060   0.000000   0.000000   0.000000   0.000000  -0.000001
             25         26         27         28         29         30
     1  C    0.000000   0.000000   0.000000   0.000000   0.000000   0.000000
     2  C    0.000000   0.000000   0.000000   0.000000   0.000000   0.000000
     3  C    0.001053  -0.000491  -0.000125   0.000028  -0.000036   0.000020
     4  C   -0.004343   0.000035  -0.000515   0.000009  -0.000004   0.000027
     5  C   -0.023605  -0.001381  -0.001832   0.001134  -0.000996  -0.002826
     6  C    0.000036   0.000000  -0.000015   0.000000   0.000000   0.000000
     7  C   -0.000013   0.000006  -0.000002   0.000000   0.000000  -0.000001
     8  O   -0.000006   0.000134   0.000007   0.000000   0.000392   0.000019
     9  C    0.381706  -0.020175  -0.019877  -0.019950  -0.019580  -0.020234
    10  C   -0.024616   0.382643   0.381867   0.382427  -0.002641   0.001297
    11  C   -0.025800  -0.002556   0.001316  -0.002117   0.382856   0.382210
    12  H    0.000000   0.000000   0.000000   0.000000   0.000000   0.000000
    13  H    0.000000   0.000000   0.000000   0.000000   0.000000   0.000000
    14  H    0.000000   0.000000   0.000000   0.000000   0.000000   0.000000
    15  H    0.000000   0.000000   0.000000   0.000000   0.000000   0.000000
    16  H   -0.000007  -0.000742  -0.000090   0.000007   0.000017  -0.000001
    17  H   -0.000178   0.000022  -0.000169  -0.000028   0.000000   0.000001
    18  H    0.000135  -0.000002   0.000015   0.000000  -0.000001   0.000004
    19  H   -0.000809   0.000001   0.000008  -0.000029   0.000027   0.000164
    20  H    0.000000  -0.000001   0.000008   0.000000   0.000000   0.000000
    21  H   -0.000002   0.000000   0.000001   0.000000   0.000000   0.000000
    22  H    0.000000   0.000001   0.000000   0.000000   0.000000   0.000000
    23  H    0.000000   0.000000   0.000000   0.000000   0.000001   0.000000
    24  H    0.000001   0.000006   0.000000   0.000000   0.000007  -0.000002
    25  H    0.656830   0.001905  -0.001871  -0.002908   0.001925  -0.001776
    26  H    0.001905   0.626210  -0.021907  -0.021937   0.000356   0.000017
    27  H   -0.001871  -0.021907   0.635422  -0.021957   0.000019  -0.000037
    28  H   -0.002908  -0.021937  -0.021957   0.631694  -0.000019   0.000025
    29  H    0.001925   0.000356   0.000019  -0.000019   0.612046  -0.021152
    30  H   -0.001776   0.000017  -0.000037   0.000025  -0.021152   0.633775
    31  H   -0.003426  -0.000008   0.000016   0.000110  -0.022204  -0.021996
             31
     1  C    0.000000
     2  C    0.000000
     3  C   -0.000011
     4  C   -0.000016
     5  C    0.001170
     6  C    0.000000
     7  C    0.000000
     8  O    0.000013
     9  C   -0.020397
    10  C   -0.001806
    11  C    0.381265
    12  H    0.000000
    13  H    0.000000
    14  H    0.000000
    15  H    0.000000
    16  H    0.000000
    17  H   -0.000001
    18  H    0.000000
    19  H    0.000060
    20  H    0.000000
    21  H    0.000000
    22  H    0.000000
    23  H    0.000000
    24  H   -0.000001
    25  H   -0.003426
    26  H   -0.000008
    27  H    0.000016
    28  H    0.000110
    29  H   -0.022204
    30  H   -0.021996
    31  H    0.639025
 Mulliken atomic charges:
              1
     1  C   -0.171200
     2  C   -0.023266
     3  C    0.077606
     4  C   -0.102070
     5  C   -0.033011
     6  C   -0.101514
     7  C   -0.115758
     8  O   -0.313482
     9  C   -0.015109
    10  C   -0.174984
    11  C   -0.173870
    12  H    0.052616
    13  H    0.054161
    14  H    0.054345
    15  H    0.048501
    16  H    0.039075
    17  H    0.049949
    18  H    0.048937
    19  H    0.050245
    20  H    0.045761
    21  H    0.051692
    22  H    0.044142
    23  H    0.055758
    24  H    0.176961
    25  H    0.045766
    26  H    0.057862
    27  H    0.049720
    28  H    0.053510
    29  H    0.068988
    30  H    0.050466
    31  H    0.048206
 Sum of Mulliken atomic charges =   0.00000
 Mulliken charges with hydrogens summed into heavy atoms:
              1
     1  C   -0.010078
     2  C    0.025235
     3  C    0.116681
     4  C   -0.003184
     5  C    0.017234
     6  C   -0.004062
     7  C   -0.015858
     8  O   -0.136521
     9  C    0.030657
    10  C   -0.013893
    11  C   -0.006211
 Sum of Mulliken charges with hydrogens summed into heavy atoms =   0.00000
 Electronic spatial extent (au):  <R**2>=           2171.9530
 Charge=              0.0000 electrons
 Dipole moment (field-independent basis, Debye):
    X=             -1.1402    Y=             -0.1576    Z=              0.7345  Tot=              1.3654
 Quadrupole moment (field-independent basis, Debye-Ang):
   XX=            -69.7869   YY=            -66.4775   ZZ=            -66.4126
   XY=             -2.2419   XZ=              0.3522   YZ=              2.5020
 Traceless Quadrupole moment (field-independent basis, Debye-Ang):
   XX=             -2.2279   YY=              1.0815   ZZ=              1.1464
   XY=             -2.2419   XZ=              0.3522   YZ=              2.5020
 Octapole moment (field-independent basis, Debye-Ang**2):
  XXX=              6.9833  YYY=             19.1305  ZZZ=              1.6631  XYY=             -2.9910
  XXY=             -0.1829  XXZ=              0.0538  XZZ=             -0.5344  YZZ=              6.1582
  YYZ=              6.2323  XYZ=              0.8728
 Hexadecapole moment (field-independent basis, Debye-Ang**3):
 XXXX=          -1964.2131 YYYY=           -528.8469 ZZZZ=           -269.3081 XXXY=              4.3626
 XXXZ=              6.3458 YYYX=              5.2806 YYYZ=             21.7441 ZZZX=             -1.9968
 ZZZY=              5.9846 XXYY=           -418.4833 XXZZ=           -373.9365 YYZZ=           -131.2867
 XXYZ=              4.3073 YYXZ=              5.7771 ZZXY=              3.0867
 N-N= 6.916185441068D+02 E-N=-2.455384608917D+03  KE= 4.555425645162D+02
 ******************************Gaussian NBO Version 3.1******************************
             N A T U R A L   A T O M I C   O R B I T A L   A N D
          N A T U R A L   B O N D   O R B I T A L   A N A L Y S I S
 ******************************Gaussian NBO Version 3.1******************************
       /RESON  / : Allow strongly delocalized NBO set
       /NLMO   / : Form Natural Localized Molecular Orbitals
       /NMR /    : Analyze NMR Sheilding Tensor 

 Analyzing the SCF density

 Job title: comment                                                         

 Storage needed:     19864 in NPA,     23691 in NBO,     45933 in NLMO (  33549317 available)


 NATURAL POPULATIONS:  Natural atomic orbital occupancies 
                                                          
   NAO  Atom  No  lang   Type(AO)    Occupancy      Energy
 ----------------------------------------------------------
     1    C    1  S      Cor( 1S)     1.99997     -10.96674
     2    C    1  S      Val( 2S)     1.07959      -0.18292
     3    C    1  px     Val( 2p)     0.99182       0.08678
     4    C    1  py     Val( 2p)     1.02858       0.08224
     5    C    1  pz     Val( 2p)     1.02620       0.08318

     6    C    2  S      Cor( 1S)     1.99997     -10.98990
     7    C    2  S      Val( 2S)     1.07794      -0.19136
     8    C    2  px     Val( 2p)     0.95392       0.10939
     9    C    2  py     Val( 2p)     0.95743       0.10887
    10    C    2  pz     Val( 2p)     0.99606       0.09958

    11    C    3  S      Cor( 1S)     1.99989     -11.03418
    12    C    3  S      Val( 2S)     1.08663      -0.21516
    13    C    3  px     Val( 2p)     0.91267       0.10381
    14    C    3  py     Val( 2p)     0.86851       0.11289
    15    C    3  pz     Val( 2p)     0.98721       0.08775

    16    C    4  S      Cor( 1S)     1.99995     -10.97379
    17    C    4  S      Val( 2S)     1.08771      -0.19068
    18    C    4  px     Val( 2p)     0.97188       0.10144
    19    C    4  py     Val( 2p)     0.98673       0.09586
    20    C    4  pz     Val( 2p)     1.01721       0.09392

    21    C    5  S      Cor( 1S)     1.99995     -10.98692
    22    C    5  S      Val( 2S)     1.10120      -0.20744
    23    C    5  px     Val( 2p)     0.96166       0.10752
    24    C    5  py     Val( 2p)     0.95398       0.11101
    25    C    5  pz     Val( 2p)     0.99496       0.10001

    26    C    6  S      Cor( 1S)     1.99997     -10.97432
    27    C    6  S      Val( 2S)     1.08299      -0.18789
    28    C    6  px     Val( 2p)     0.98171       0.09642
    29    C    6  py     Val( 2p)     0.99205       0.09660
    30    C    6  pz     Val( 2p)     1.00812       0.09309

    31    C    7  S      Cor( 1S)     1.99996     -10.97470
    32    C    7  S      Val( 2S)     1.09654      -0.20128
    33    C    7  px     Val( 2p)     0.98442       0.08849
    34    C    7  py     Val( 2p)     0.99462       0.08936
    35    C    7  pz     Val( 2p)     1.01560       0.08833

    36    O    8  S      Cor( 1S)     1.99999     -20.14175
    37    O    8  S      Val( 2S)     1.74721      -0.99810
    38    O    8  px     Val( 2p)     1.67503      -0.25653
    39    O    8  py     Val( 2p)     1.18128      -0.04092
    40    O    8  pz     Val( 2p)     1.73090      -0.27792

    41    C    9  S      Cor( 1S)     1.99996     -10.98546
    42    C    9  S      Val( 2S)     1.08423      -0.18887
    43    C    9  px     Val( 2p)     0.94618       0.12034
    44    C    9  py     Val( 2p)     0.98699       0.10920
    45    C    9  pz     Val( 2p)     0.95662       0.11914

    46    C   10  S      Cor( 1S)     1.99997     -10.95861
    47    C   10  S      Val( 2S)     1.07961      -0.17543
    48    C   10  px     Val( 2p)     1.02435       0.08943
    49    C   10  py     Val( 2p)     1.02988       0.09020
    50    C   10  pz     Val( 2p)     0.99724       0.09410

    51    C   11  S      Cor( 1S)     1.99997     -10.95067
    52    C   11  S      Val( 2S)     1.08145      -0.16866
    53    C   11  px     Val( 2p)     1.01029       0.10040
    54    C   11  py     Val( 2p)     1.02318       0.09806
    55    C   11  pz     Val( 2p)     1.01552       0.09930

    56    H   12  S      Val( 1S)     0.96464       0.07199

    57    H   13  S      Val( 1S)     0.96313       0.07278

    58    H   14  S      Val( 1S)     0.96299       0.07367

    59    H   15  S      Val( 1S)     0.97556       0.06576

    60    H   16  S      Val( 1S)     0.99658       0.04835

    61    H   17  S      Val( 1S)     0.97159       0.07334

    62    H   18  S      Val( 1S)     0.97220       0.07113

    63    H   19  S      Val( 1S)     0.97550       0.07115

    64    H   20  S      Val( 1S)     0.97466       0.06735

    65    H   21  S      Val( 1S)     0.96873       0.07070

    66    H   22  S      Val( 1S)     0.97615       0.06121

    67    H   23  S      Val( 1S)     0.96497       0.07031

    68    H   24  S      Val( 1S)     0.81033       0.07316

    69    H   25  S      Val( 1S)     0.97947       0.07004

    70    H   26  S      Val( 1S)     0.95990       0.08512

    71    H   27  S      Val( 1S)     0.96732       0.07854

    72    H   28  S      Val( 1S)     0.96340       0.07962

    73    H   29  S      Val( 1S)     0.95032       0.10365

    74    H   30  S      Val( 1S)     0.96650       0.08591

    75    H   31  S      Val( 1S)     0.96858       0.08260


 Summary of Natural Population Analysis:                  
                                                          
                                       Natural Population 
                Natural  -----------------------------------------------
    Atom  No    Charge         Core      Valence    Rydberg      Total
 -----------------------------------------------------------------------
      C    1   -0.12618      1.99997     4.12620    0.00000     6.12618
      C    2    0.01468      1.99997     3.98535    0.00000     5.98532
      C    3    0.14510      1.99989     3.85501    0.00000     5.85490
      C    4   -0.06349      1.99995     4.06353    0.00000     6.06349
      C    5   -0.01175      1.99995     4.01180    0.00000     6.01175
      C    6   -0.06484      1.99997     4.06487    0.00000     6.06484
      C    7   -0.09114      1.99996     4.09118    0.00000     6.09114
      O    8   -0.33441      1.99999     6.33442    0.00000     8.33441
      C    9    0.02601      1.99996     3.97403    0.00000     5.97399
      C   10   -0.13104      1.99997     4.13107    0.00000     6.13104
      C   11   -0.13040      1.99997     4.13043    0.00000     6.13040
      H   12    0.03536      0.00000     0.96464    0.00000     0.96464
      H   13    0.03687      0.00000     0.96313    0.00000     0.96313
      H   14    0.03701      0.00000     0.96299    0.00000     0.96299
      H   15    0.02444      0.00000     0.97556    0.00000     0.97556
      H   16    0.00342      0.00000     0.99658    0.00000     0.99658
      H   17    0.02841      0.00000     0.97159    0.00000     0.97159
      H   18    0.02780      0.00000     0.97220    0.00000     0.97220
      H   19    0.02450      0.00000     0.97550    0.00000     0.97550
      H   20    0.02534      0.00000     0.97466    0.00000     0.97466
      H   21    0.03127      0.00000     0.96873    0.00000     0.96873
      H   22    0.02385      0.00000     0.97615    0.00000     0.97615
      H   23    0.03503      0.00000     0.96497    0.00000     0.96497
      H   24    0.18967      0.00000     0.81033    0.00000     0.81033
      H   25    0.02053      0.00000     0.97947    0.00000     0.97947
      H   26    0.04010      0.00000     0.95990    0.00000     0.95990
      H   27    0.03268      0.00000     0.96732    0.00000     0.96732
      H   28    0.03660      0.00000     0.96340    0.00000     0.96340
      H   29    0.04968      0.00000     0.95032    0.00000     0.95032
      H   30    0.03350      0.00000     0.96650    0.00000     0.96650
      H   31    0.03142      0.00000     0.96858    0.00000     0.96858
 =======================================================================
   * Total *    0.00000     21.99955    66.00045    0.00000    88.00000

                                 Natural Population      
 --------------------------------------------------------
   Core                      21.99955 ( 99.9980% of  22)
   Valence                   66.00045 (100.0007% of  66)
   Natural Minimal Basis     88.00000 (100.0000% of  88)
   Natural Rydberg Basis      0.00000 (  0.0000% of  88)
 --------------------------------------------------------

    Atom  No          Natural Electron Configuration
 ----------------------------------------------------------------------------
      C    1      [core]2S( 1.08)2p( 3.05)
      C    2      [core]2S( 1.08)2p( 2.91)
      C    3      [core]2S( 1.09)2p( 2.77)
      C    4      [core]2S( 1.09)2p( 2.98)
      C    5      [core]2S( 1.10)2p( 2.91)
      C    6      [core]2S( 1.08)2p( 2.98)
      C    7      [core]2S( 1.10)2p( 2.99)
      O    8      [core]2S( 1.75)2p( 4.59)
      C    9      [core]2S( 1.08)2p( 2.89)
      C   10      [core]2S( 1.08)2p( 3.05)
      C   11      [core]2S( 1.08)2p( 3.05)
      H   12            1S( 0.96)
      H   13            1S( 0.96)
      H   14            1S( 0.96)
      H   15            1S( 0.98)
      H   16            1S( 1.00)
      H   17            1S( 0.97)
      H   18            1S( 0.97)
      H   19            1S( 0.98)
      H   20            1S( 0.97)
      H   21            1S( 0.97)
      H   22            1S( 0.98)
      H   23            1S( 0.96)
      H   24            1S( 0.81)
      H   25            1S( 0.98)
      H   26            1S( 0.96)
      H   27            1S( 0.97)
      H   28            1S( 0.96)
      H   29            1S( 0.95)
      H   30            1S( 0.97)
      H   31            1S( 0.97)


 NATURAL BOND ORBITAL ANALYSIS:

                       Occupancies       Lewis Structure    Low   High
           Occ.    -------------------  -----------------   occ   occ
  Cycle   Thresh.   Lewis   Non-Lewis     CR  BD  3C  LP    (L)   (NL)   Dev
 =============================================================================
   1(1)    1.90    87.64627   0.35373     11  31   0   2     0      0    0.02
 -----------------------------------------------------------------------------

 Structure accepted: No low occupancy Lewis orbitals

 --------------------------------------------------------
   Core                     21.99955 ( 99.998% of  22)
   Valence Lewis            65.64672 ( 99.465% of  66)
  ==================       ============================
   Total Lewis              87.64627 ( 99.598% of  88)
  -----------------------------------------------------
   Valence non-Lewis         0.35373 (  0.402% of  88)
   Rydberg non-Lewis         0.00000 (  0.000% of  88)
  ==================       ============================
   Total non-Lewis           0.35373 (  0.402% of  88)
 --------------------------------------------------------


       (Occupancy)   Bond orbital/ Coefficients/ Hybrids
 ---------------------------------------------------------------------------------
     1. (1.98923) BD ( 1) C   1 - C   2  
                ( 50.81%)   0.7128* C   1 s( 25.75%)p 2.88( 74.25%)
                                            0.0001  0.5074  0.8401 -0.1066 -0.1595
                ( 49.19%)   0.7013* C   2 s( 25.28%)p 2.96( 74.72%)
                                            0.0000  0.5027 -0.8366  0.1094  0.1881
     2. (1.99529) BD ( 1) C   1 - H  12  
                ( 51.81%)   0.7198* C   1 s( 24.80%)p 3.03( 75.20%)
                                            0.0000  0.4980 -0.1317  0.0519  0.8555
                ( 48.19%)   0.6942* H  12 s(100.00%)
                                            1.0000
     3. (1.99503) BD ( 1) C   1 - H  13  
                ( 51.85%)   0.7201* C   1 s( 24.74%)p 3.04( 75.26%)
                                            0.0000  0.4974 -0.2794  0.7297 -0.3768
                ( 48.15%)   0.6939* H  13 s(100.00%)
                                            1.0000
     4. (1.99495) BD ( 1) C   1 - H  14  
                ( 51.86%)   0.7202* C   1 s( 24.71%)p 3.05( 75.29%)
                                            0.0000  0.4971 -0.4459 -0.6734 -0.3172
                ( 48.14%)   0.6938* H  14 s(100.00%)
                                            1.0000
     5. (1.98595) BD ( 1) C   2 - C   6  
                ( 49.66%)   0.7047* C   2 s( 25.17%)p 2.97( 74.83%)
                                            0.0000  0.5017  0.2913 -0.7230  0.3751
                ( 50.34%)   0.7095* C   6 s( 25.41%)p 2.94( 74.59%)
                                            0.0001  0.5041 -0.2960  0.7244 -0.3654
     6. (1.98414) BD ( 1) C   2 - C   7  
                ( 49.33%)   0.7023* C   2 s( 25.05%)p 2.99( 74.95%)
                                            0.0000  0.5005  0.4540  0.6791  0.2868
                ( 50.67%)   0.7119* C   7 s( 25.79%)p 2.88( 74.21%)
                                            0.0001  0.5079 -0.4379 -0.6978 -0.2519
     7. (1.98530) BD ( 1) C   2 - H  15  
                ( 51.15%)   0.7152* C   2 s( 24.51%)p 3.08( 75.49%)
                                            0.0000  0.4951  0.0954 -0.0649 -0.8612
                ( 48.85%)   0.6989* H  15 s(100.00%)
                                            1.0000
     8. (1.98357) BD ( 1) C   3 - C   5  
                ( 50.64%)   0.7116* C   3 s( 26.72%)p 2.74( 73.28%)
                                            0.0000  0.5169  0.3273 -0.6221 -0.4886
                ( 49.36%)   0.7026* C   5 s( 25.33%)p 2.95( 74.67%)
                                            0.0001  0.5033 -0.2661  0.6522  0.5005
     9. (1.98675) BD ( 1) C   3 - C   7  
                ( 49.29%)   0.7021* C   3 s( 25.50%)p 2.92( 74.50%)
                                            0.0000  0.5050 -0.8201  0.1587 -0.2172
                ( 50.71%)   0.7121* C   7 s( 25.34%)p 2.95( 74.66%)
                                            0.0000  0.5033  0.8200 -0.2107  0.1729
    10. (1.98836) BD ( 1) C   3 - O   8  
                ( 40.99%)   0.6402* C   3 s( 22.53%)p 3.44( 77.47%)
                                            0.0000  0.4746  0.4670  0.7360 -0.1221
                ( 59.01%)   0.7682* O   8 s( 16.66%)p 5.00( 83.34%)
                                            0.0000  0.4082 -0.5227 -0.7307  0.1620
    11. (1.98954) BD ( 1) C   3 - H  16  
                ( 50.50%)   0.7106* C   3 s( 25.25%)p 2.96( 74.75%)
                                            0.0000  0.5025  0.0464 -0.2148  0.8362
                ( 49.50%)   0.7036* H  16 s(100.00%)
                                            1.0000
    12. (1.98256) BD ( 1) C   4 - C   5  
                ( 50.50%)   0.7106* C   4 s( 25.55%)p 2.91( 74.45%)
                                            0.0001  0.5054  0.4442  0.7293 -0.1238
                ( 49.50%)   0.7036* C   5 s( 24.76%)p 3.04( 75.24%)
                                            0.0000  0.4976 -0.4584 -0.7128  0.1848
    13. (1.98934) BD ( 1) C   4 - C   6  
                ( 49.95%)   0.7068* C   4 s( 25.41%)p 2.94( 74.59%)
                                            0.0000  0.5040 -0.8169  0.1841  0.2115
                ( 50.05%)   0.7074* C   6 s( 25.13%)p 2.98( 74.87%)
                                            0.0000  0.5013  0.8240 -0.1284 -0.2305
    14. (1.99056) BD ( 1) C   4 - H  17  
                ( 51.44%)   0.7172* C   4 s( 24.72%)p 3.04( 75.28%)
                                            0.0000  0.4972  0.3678 -0.4605  0.6367
                ( 48.56%)   0.6969* H  17 s(100.00%)
                                            1.0000
    15. (1.99152) BD ( 1) C   4 - H  18  
                ( 51.37%)   0.7167* C   4 s( 24.32%)p 3.11( 75.68%)
                                            0.0000  0.4932  0.0088 -0.4713 -0.7311
                ( 48.63%)   0.6974* H  18 s(100.00%)
                                            1.0000
    16. (1.97890) BD ( 1) C   5 - C   9  
                ( 50.43%)   0.7101* C   5 s( 25.71%)p 2.89( 74.29%)
                                            0.0001  0.5070  0.8382 -0.1508  0.1324
                ( 49.57%)   0.7041* C   9 s( 25.36%)p 2.94( 74.64%)
                                            0.0001  0.5036 -0.8377  0.2049 -0.0522
    17. (1.98475) BD ( 1) C   5 - H  19  
                ( 51.15%)   0.7152* C   5 s( 24.20%)p 3.13( 75.80%)
                                            0.0000  0.4920 -0.1281  0.2092 -0.8354
                ( 48.85%)   0.6989* H  19 s(100.00%)
                                            1.0000
    18. (1.99142) BD ( 1) C   6 - H  20  
                ( 51.30%)   0.7162* C   6 s( 24.40%)p 3.10( 75.60%)
                                            0.0000  0.4940 -0.0471  0.0734  0.8651
                ( 48.70%)   0.6979* H  20 s(100.00%)
                                            1.0000
    19. (1.99017) BD ( 1) C   6 - H  21  
                ( 51.54%)   0.7179* C   6 s( 25.06%)p 2.99( 74.94%)
                                            0.0000  0.5006 -0.4807 -0.6733 -0.2549
                ( 48.46%)   0.6961* H  21 s(100.00%)
                                            1.0000
    20. (1.99100) BD ( 1) C   7 - H  22  
                ( 51.20%)   0.7156* C   7 s( 24.27%)p 3.12( 75.73%)
                                            0.0000  0.4926 -0.3682  0.3313  0.7155
                ( 48.80%)   0.6985* H  22 s(100.00%)
                                            1.0000
    21. (1.98977) BD ( 1) C   7 - H  23  
                ( 51.72%)   0.7191* C   7 s( 24.60%)p 3.06( 75.40%)
                                            0.0000  0.4960 -0.0181  0.5991 -0.6283
                ( 48.28%)   0.6949* H  23 s(100.00%)
                                            1.0000
    22. (1.98883) BD ( 1) O   8 - H  24  
                ( 59.47%)   0.7711* O   8 s( 16.74%)p 4.97( 83.26%)
                                            0.0000 -0.4091  0.3795 -0.6218 -0.5495
                ( 40.53%)   0.6367* H  24 s(100.00%)
                                           -1.0000
    23. (1.99005) BD ( 1) C   9 - C  10  
                ( 48.99%)   0.6999* C   9 s( 25.27%)p 2.96( 74.73%)
                                            0.0000  0.5027  0.2484 -0.0090  0.8279
                ( 51.01%)   0.7142* C  10 s( 25.85%)p 2.87( 74.15%)
                                            0.0001  0.5084 -0.2826  0.0345 -0.8127
    24. (1.98959) BD ( 1) C   9 - C  11  
                ( 49.33%)   0.7023* C   9 s( 25.15%)p 2.98( 74.85%)
                                            0.0000  0.5015  0.4703  0.5783 -0.4393
                ( 50.67%)   0.7119* C  11 s( 25.80%)p 2.88( 74.20%)
                                            0.0001  0.5079 -0.5023 -0.5326  0.4539
    25. (1.98392) BD ( 1) C   9 - H  25  
                ( 50.91%)   0.7135* C   9 s( 24.22%)p 3.13( 75.78%)
                                            0.0000  0.4922  0.1242 -0.7896 -0.3447
                ( 49.09%)   0.7007* H  25 s(100.00%)
                                            1.0000
    26. (1.99534) BD ( 1) C  10 - H  26  
                ( 52.05%)   0.7215* C  10 s( 24.85%)p 3.02( 75.15%)
                                            0.0000  0.4985 -0.0473  0.7865  0.3616
                ( 47.95%)   0.6924* H  26 s(100.00%)
                                            1.0000
    27. (1.99434) BD ( 1) C  10 - H  27  
                ( 51.66%)   0.7187* C  10 s( 24.74%)p 3.04( 75.26%)
                                            0.0000  0.4974 -0.4864 -0.5545  0.4567
                ( 48.34%)   0.6953* H  27 s(100.00%)
                                            1.0000
    28. (1.99446) BD ( 1) C  10 - H  28  
                ( 51.82%)   0.7199* C  10 s( 24.57%)p 3.07( 75.43%)
                                            0.0000  0.4956  0.8255 -0.2699  0.0116
                ( 48.18%)   0.6941* H  28 s(100.00%)
                                            1.0000
    29. (1.99581) BD ( 1) C  11 - H  29  
                ( 52.57%)   0.7251* C  11 s( 25.11%)p 2.98( 74.89%)
                                            0.0000  0.5011 -0.0093  0.7892  0.3549
                ( 47.43%)   0.6887* H  29 s(100.00%)
                                            1.0000
    30. (1.99476) BD ( 1) C  11 - H  30  
                ( 51.69%)   0.7189* C  11 s( 24.74%)p 3.04( 75.26%)
                                            0.0000  0.4974 -0.2868  0.0483 -0.8173
                ( 48.31%)   0.6951* H  30 s(100.00%)
                                            1.0000
    31. (1.99472) BD ( 1) C  11 - H  31  
                ( 51.57%)   0.7181* C  11 s( 24.35%)p 3.11( 75.65%)
                                            0.0000  0.4934  0.8157 -0.3020 -0.0038
                ( 48.43%)   0.6959* H  31 s(100.00%)
                                            1.0000
    32. (1.99997) CR ( 1) C   1           s(100.00%)
                                            1.0000  0.0000 -0.0001  0.0000  0.0000
    33. (1.99997) CR ( 1) C   2           s(100.00%)
                                            1.0000  0.0000  0.0000  0.0000  0.0000
    34. (1.99989) CR ( 1) C   3           s(100.00%)
                                            1.0000  0.0000  0.0000  0.0000  0.0000
    35. (1.99995) CR ( 1) C   4           s(100.00%)
                                            1.0000 -0.0001  0.0000 -0.0001  0.0000
    36. (1.99995) CR ( 1) C   5           s(100.00%)
                                            1.0000 -0.0001  0.0000  0.0000  0.0000
    37. (1.99996) CR ( 1) C   6           s(100.00%)
                                            1.0000  0.0000  0.0000 -0.0001  0.0000
    38. (1.99996) CR ( 1) C   7           s(100.00%)
                                            1.0000  0.0000  0.0000  0.0001  0.0000
    39. (1.99999) CR ( 1) O   8           s(100.00%)
                                            1.0000  0.0000  0.0000  0.0000  0.0000
    40. (1.99996) CR ( 1) C   9           s(100.00%)
                                            1.0000  0.0000  0.0001  0.0000  0.0000
    41. (1.99997) CR ( 1) C  10           s(100.00%)
                                            1.0000  0.0000  0.0001  0.0000  0.0001
    42. (1.99997) CR ( 1) C  11           s(100.00%)
                                            1.0000  0.0000  0.0001  0.0000  0.0000
    43. (1.99158) LP ( 1) O   8           s( 66.32%)p 0.51( 33.68%)
                                            0.0000  0.8144  0.4110  0.0715 -0.4034
    44. (1.97525) LP ( 2) O   8           s(  0.28%)p99.99( 99.72%)
                                            0.0000  0.0527  0.6433 -0.2726  0.7135
    45. (0.00981) BD*( 1) C   1 - C   2  
                ( 49.19%)   0.7013* C   1 s( 25.75%)p 2.88( 74.25%)
                                           -0.0001 -0.5074 -0.8401  0.1066  0.1595
                ( 50.81%)  -0.7128* C   2 s( 25.28%)p 2.96( 74.72%)
                                            0.0000 -0.5027  0.8366 -0.1094 -0.1881
    46. (0.00593) BD*( 1) C   1 - H  12  
                ( 48.19%)   0.6942* C   1 s( 24.80%)p 3.03( 75.20%)
                                            0.0000 -0.4980  0.1317 -0.0519 -0.8555
                ( 51.81%)  -0.7198* H  12 s(100.00%)
                                           -1.0000
    47. (0.00502) BD*( 1) C   1 - H  13  
                ( 48.15%)   0.6939* C   1 s( 24.74%)p 3.04( 75.26%)
                                            0.0000 -0.4974  0.2794 -0.7297  0.3768
                ( 51.85%)  -0.7201* H  13 s(100.00%)
                                           -1.0000
    48. (0.00517) BD*( 1) C   1 - H  14  
                ( 48.14%)   0.6938* C   1 s( 24.71%)p 3.05( 75.29%)
                                            0.0000 -0.4971  0.4459  0.6734  0.3172
                ( 51.86%)  -0.7202* H  14 s(100.00%)
                                           -1.0000
    49. (0.01550) BD*( 1) C   2 - C   6  
                ( 50.34%)   0.7095* C   2 s( 25.17%)p 2.97( 74.83%)
                                            0.0000  0.5017  0.2913 -0.7230  0.3751
                ( 49.66%)  -0.7047* C   6 s( 25.41%)p 2.94( 74.59%)
                                            0.0001  0.5041 -0.2960  0.7244 -0.3654
    50. (0.01603) BD*( 1) C   2 - C   7  
                ( 50.67%)   0.7119* C   2 s( 25.05%)p 2.99( 74.95%)
                                            0.0000  0.5005  0.4540  0.6791  0.2868
                ( 49.33%)  -0.7023* C   7 s( 25.79%)p 2.88( 74.21%)
                                            0.0001  0.5079 -0.4379 -0.6978 -0.2519
    51. (0.01132) BD*( 1) C   2 - H  15  
                ( 48.85%)   0.6989* C   2 s( 24.51%)p 3.08( 75.49%)
                                            0.0000 -0.4951 -0.0954  0.0649  0.8612
                ( 51.15%)  -0.7152* H  15 s(100.00%)
                                           -1.0000
    52. (0.02746) BD*( 1) C   3 - C   5  
                ( 49.36%)   0.7026* C   3 s( 26.72%)p 2.74( 73.28%)
                                            0.0000 -0.5169 -0.3273  0.6221  0.4886
                ( 50.64%)  -0.7116* C   5 s( 25.33%)p 2.95( 74.67%)
                                           -0.0001 -0.5033  0.2661 -0.6522 -0.5005
    53. (0.02756) BD*( 1) C   3 - C   7  
                ( 50.71%)   0.7121* C   3 s( 25.50%)p 2.92( 74.50%)
                                            0.0000  0.5050 -0.8201  0.1587 -0.2172
                ( 49.29%)  -0.7021* C   7 s( 25.34%)p 2.95( 74.66%)
                                            0.0000  0.5033  0.8200 -0.2107  0.1729
    54. (0.02119) BD*( 1) C   3 - O   8  
                ( 59.01%)   0.7682* C   3 s( 22.53%)p 3.44( 77.47%)
                                            0.0000  0.4746  0.4670  0.7360 -0.1221
                ( 40.99%)  -0.6402* O   8 s( 16.66%)p 5.00( 83.34%)
                                            0.0000  0.4082 -0.5227 -0.7307  0.1620
    55. (0.02321) BD*( 1) C   3 - H  16  
                ( 49.50%)   0.7036* C   3 s( 25.25%)p 2.96( 74.75%)
                                            0.0000 -0.5025 -0.0464  0.2148 -0.8362
                ( 50.50%)  -0.7106* H  16 s(100.00%)
                                           -1.0000
    56. (0.01534) BD*( 1) C   4 - C   5  
                ( 49.50%)   0.7036* C   4 s( 25.55%)p 2.91( 74.45%)
                                           -0.0001 -0.5054 -0.4442 -0.7293  0.1238
                ( 50.50%)  -0.7106* C   5 s( 24.76%)p 3.04( 75.24%)
                                            0.0000 -0.4976  0.4584  0.7128 -0.1848
    57. (0.01202) BD*( 1) C   4 - C   6  
                ( 50.05%)   0.7074* C   4 s( 25.41%)p 2.94( 74.59%)
                                            0.0000  0.5040 -0.8169  0.1841  0.2115
                ( 49.95%)  -0.7068* C   6 s( 25.13%)p 2.98( 74.87%)
                                            0.0000  0.5013  0.8240 -0.1284 -0.2305
    58. (0.00954) BD*( 1) C   4 - H  17  
                ( 48.56%)   0.6969* C   4 s( 24.72%)p 3.04( 75.28%)
                                            0.0000 -0.4972 -0.3678  0.4605 -0.6367
                ( 51.44%)  -0.7172* H  17 s(100.00%)
                                           -1.0000
    59. (0.00724) BD*( 1) C   4 - H  18  
                ( 48.63%)   0.6974* C   4 s( 24.32%)p 3.11( 75.68%)
                                            0.0000 -0.4932 -0.0088  0.4713  0.7311
                ( 51.37%)  -0.7167* H  18 s(100.00%)
                                           -1.0000
    60. (0.02186) BD*( 1) C   5 - C   9  
                ( 49.57%)   0.7041* C   5 s( 25.71%)p 2.89( 74.29%)
                                           -0.0001 -0.5070 -0.8382  0.1508 -0.1324
                ( 50.43%)  -0.7101* C   9 s( 25.36%)p 2.94( 74.64%)
                                           -0.0001 -0.5036  0.8377 -0.2049  0.0522
    61. (0.01156) BD*( 1) C   5 - H  19  
                ( 48.85%)   0.6989* C   5 s( 24.20%)p 3.13( 75.80%)
                                            0.0000 -0.4920  0.1281 -0.2092  0.8354
                ( 51.15%)  -0.7152* H  19 s(100.00%)
                                           -1.0000
    62. (0.00930) BD*( 1) C   6 - H  20  
                ( 48.70%)   0.6979* C   6 s( 24.40%)p 3.10( 75.60%)
                                            0.0000 -0.4940  0.0471 -0.0734 -0.8651
                ( 51.30%)  -0.7162* H  20 s(100.00%)
                                           -1.0000
    63. (0.00833) BD*( 1) C   6 - H  21  
                ( 48.46%)   0.6961* C   6 s( 25.06%)p 2.99( 74.94%)
                                            0.0000 -0.5006  0.4807  0.6733  0.2549
                ( 51.54%)  -0.7179* H  21 s(100.00%)
                                           -1.0000
    64. (0.00898) BD*( 1) C   7 - H  22  
                ( 48.80%)   0.6985* C   7 s( 24.27%)p 3.12( 75.73%)
                                            0.0000 -0.4926  0.3682 -0.3313 -0.7155
                ( 51.20%)  -0.7156* H  22 s(100.00%)
                                           -1.0000
    65. (0.00824) BD*( 1) C   7 - H  23  
                ( 48.28%)   0.6949* C   7 s( 24.60%)p 3.06( 75.40%)
                                            0.0000 -0.4960  0.0181 -0.5991  0.6283
                ( 51.72%)  -0.7191* H  23 s(100.00%)
                                           -1.0000
    66. (0.00702) BD*( 1) O   8 - H  24  
                ( 40.53%)   0.6367* O   8 s( 16.74%)p 4.97( 83.26%)
                                            0.0000  0.4091 -0.3795  0.6218  0.5495
                ( 59.47%)  -0.7711* H  24 s(100.00%)
                                            1.0000
    67. (0.01060) BD*( 1) C   9 - C  10  
                ( 51.01%)   0.7142* C   9 s( 25.27%)p 2.96( 74.73%)
                                            0.0000  0.5027  0.2484 -0.0090  0.8279
                ( 48.99%)  -0.6999* C  10 s( 25.85%)p 2.87( 74.15%)
                                            0.0001  0.5084 -0.2826  0.0345 -0.8127
    68. (0.01015) BD*( 1) C   9 - C  11  
                ( 50.67%)   0.7119* C   9 s( 25.15%)p 2.98( 74.85%)
                                            0.0000  0.5015  0.4703  0.5783 -0.4393
                ( 49.33%)  -0.7023* C  11 s( 25.80%)p 2.88( 74.20%)
                                            0.0001  0.5079 -0.5023 -0.5326  0.4539
    69. (0.01081) BD*( 1) C   9 - H  25  
                ( 49.09%)   0.7007* C   9 s( 24.22%)p 3.13( 75.78%)
                                            0.0000 -0.4922 -0.1242  0.7896  0.3447
                ( 50.91%)  -0.7135* H  25 s(100.00%)
                                           -1.0000
    70. (0.00621) BD*( 1) C  10 - H  26  
                ( 47.95%)   0.6924* C  10 s( 24.85%)p 3.02( 75.15%)
                                            0.0000 -0.4985  0.0473 -0.7865 -0.3616
                ( 52.05%)  -0.7215* H  26 s(100.00%)
                                           -1.0000
    71. (0.00622) BD*( 1) C  10 - H  27  
                ( 48.34%)   0.6953* C  10 s( 24.74%)p 3.04( 75.26%)
                                            0.0000 -0.4974  0.4864  0.5545 -0.4567
                ( 51.66%)  -0.7187* H  27 s(100.00%)
                                           -1.0000
    72. (0.00479) BD*( 1) C  10 - H  28  
                ( 48.18%)   0.6941* C  10 s( 24.57%)p 3.07( 75.43%)
                                            0.0000 -0.4956 -0.8255  0.2699 -0.0116
[...]
   39     271.1756       -0.0055     271.1811        -0.0037     271.1793
   43      35.1139       -0.0325      35.1464        -2.2962      37.4102
   44       2.6559      -36.2292      38.8850       -37.3102      39.9660
 Sum      355.0192      -19.0846     374.1038       -22.3284     377.3477

 Contributions to Isotropic shielding for atom    9 (   212.5721 ppm):
                         Standard Origin              Atomic Origin
 NLMO      Total    Paramagnetic  Diamagnetic   Paramagnetic  Diamagnetic
   10       0.0773       -0.3409       0.4182        -1.2677       1.3450
   14      -0.2049       -0.6338       0.4289        -1.1740       0.9691
   16       5.6601       -9.5442      15.2043        -1.9056       7.5657
   23      -0.8219       -6.1487       5.3269        -8.3356       7.5138
   24      -1.8526       -5.3681       3.5155        -9.5039       7.6513
   25       5.1404       -1.1094       6.2498        -5.6732      10.8137
   26       0.8965       -0.3286       1.2251        -0.1382       1.0348
   27       0.6587       -0.5498       1.2085        -0.3585       1.0172
   28       0.5954       -0.2268       0.8222        -0.4449       1.0403
   29       0.9546       -0.3696       1.3243        -0.0840       1.0387
   30       0.6946       -0.6292       1.3238        -0.3354       1.0300
   31       0.6249       -0.3135       0.9384        -0.4056       1.0305
   40     199.9251       -0.0023     199.9274         0.0028     199.9223
 Sum      212.3484      -25.5649     237.9133       -29.6239     241.9723

 Contributions to Isotropic shielding for atom   10 (   224.0307 ppm):
                         Standard Origin              Atomic Origin
 NLMO      Total    Paramagnetic  Diamagnetic   Paramagnetic  Diamagnetic
   10       0.0570       -0.1188       0.1759        -1.0584       1.1154
   23       4.2118       -9.5469      13.7587        -3.7719       7.9837
   24      -0.4193        0.0230      -0.4423        -1.1058       0.6865
   26       6.6417       -4.7447      11.3864        -4.5688      11.2105
   27       6.8908       -4.6852      11.5760        -4.1592      11.0501
   28       5.8298        3.7236       2.1062        -5.2612      11.0910
   41     200.0732       -0.0026     200.0758         0.0017     200.0715
 Sum      223.2850      -15.3518     238.6367       -19.9236     243.2085

 Contributions to Isotropic shielding for atom   11 (   220.1818 ppm):
                         Standard Origin              Atomic Origin
 NLMO      Total    Paramagnetic  Diamagnetic   Paramagnetic  Diamagnetic
   10       0.1099       -0.2768       0.3866        -1.0080       1.1178
   17      -0.2649       -0.1160      -0.1490        -1.2137       0.9488
   23      -0.4864        0.0295      -0.5159        -1.1731       0.6867
   24       4.2181      -10.9665      15.1846        -3.6209       7.8390
   25       0.2705        0.1560       0.1145        -0.7860       1.0565
   29       6.0136       -5.0764      11.0900        -5.4113      11.4249
   30       5.6416       -4.5411      10.1827        -5.4220      11.0637
   31       4.5649        2.7916       1.7732        -6.4242      10.9891
   42     200.0755       -0.0037     200.0793         0.0022     200.0734
 Sum      220.1428      -18.0034     238.1462       -25.0570     245.1998

 Contributions to Isotropic shielding for atom   12 (    32.7621 ppm):
                         Standard Origin              Atomic Origin
 NLMO      Total    Paramagnetic  Diamagnetic   Paramagnetic  Diamagnetic
    1       1.6653       -1.2644       2.9297         0.7890       0.8763
    2      26.3645        0.2799      26.0845         0.4410      25.9235
    3       1.9798        1.6994       0.2804         0.1551       1.8247
    4       1.9171        1.9331      -0.0161         0.0880       1.8291
 Sum       31.9266        2.6480      29.2786         1.4731      30.4535

 Contributions to Isotropic shielding for atom   13 (    32.4147 ppm):
                         Standard Origin              Atomic Origin
 NLMO      Total    Paramagnetic  Diamagnetic   Paramagnetic  Diamagnetic
    1       1.4732       -0.8283       2.3015         0.4809       0.9922
    2       1.9233        1.5133       0.4100         0.0908       1.8325
    3      26.3234        0.1707      26.1527         0.4181      25.9054
    4       1.8616        2.2577      -0.3962         0.0258       1.8358
    6      -0.1220        0.6962      -0.8182        -1.0369       0.9149
 Sum       31.4595        3.8096      27.6498        -0.0213      31.4808

 Contributions to Isotropic shielding for atom   14 (    32.4998 ppm):
                         Standard Origin              Atomic Origin
 NLMO      Total    Paramagnetic  Diamagnetic   Paramagnetic  Diamagnetic
    1       1.4292       -0.5599       1.9890         0.4352       0.9940
    2       1.8906        1.7071       0.1836         0.0508       1.8398
    3       1.9396        2.2490      -0.3094         0.0979       1.8418
    4      26.3571        0.1457      26.2115         0.4560      25.9012
    5      -0.1544        0.8014      -0.9559        -1.0261       0.8717
 Sum       31.4622        4.3434      27.1188         0.0138      31.4484

 Contributions to Isotropic shielding for atom   15 (    32.5216 ppm):
                         Standard Origin              Atomic Origin
 NLMO      Total    Paramagnetic  Diamagnetic   Paramagnetic  Diamagnetic
    1       0.7807        2.1696      -1.3889        -0.1971       0.9778
    3       0.2589       -0.9815       1.2404        -0.7023       0.9612
    4       0.2619       -0.9686       1.2304        -0.7089       0.9708
    5       1.4331        0.3446       1.0885         0.5563       0.8768
    6       1.5820        0.0604       1.5217         0.6909       0.8912
    7      26.3996        0.0245      26.3751         0.3641      26.0355
   21      -0.0489       -0.2740       0.2251        -1.1745       1.1256
 Sum       30.6673        0.3750      30.2923        -1.1716      31.8389

 Contributions to Isotropic shielding for atom   16 (    32.0715 ppm):
                         Standard Origin              Atomic Origin
 NLMO      Total    Paramagnetic  Diamagnetic   Paramagnetic  Diamagnetic
    8       0.9663       -0.1133       1.0796        -0.1345       1.1008
   10       0.6947        0.8354      -0.1407        -0.8679       1.5626
   11      26.7163        0.3435      26.3728         0.6662      26.0501
   20      -0.0021       -0.8104       0.8083        -1.1214       1.1193
   22       0.2864       -0.8041       1.0905        -0.6802       0.9665
   26      -0.1957       -1.1999       1.0042        -1.0099       0.8143
 Sum       28.4659       -1.7489      30.2148        -3.1478      31.6137

 Contributions to Isotropic shielding for atom   17 (    32.4715 ppm):
                         Standard Origin              Atomic Origin
 NLMO      Total    Paramagnetic  Diamagnetic   Paramagnetic  Diamagnetic
   12       1.3907        0.2137       1.1770         0.4969       0.8938
   13       0.9843        0.9909      -0.0065        -0.1083       1.0926
   14      26.4397        0.0611      26.3786         0.4551      25.9845
   15       2.0495        1.6449       0.4046         0.2663       1.7832
   16      -0.1384       -0.0334      -0.1050        -1.2082       1.0698
   18       0.0033       -0.6437       0.6470        -1.1363       1.1396
   27      -0.3595       -1.2182       0.8587        -0.8501       0.4906
 Sum       30.3696        1.0152      29.3544        -2.0846      32.4542

 Contributions to Isotropic shielding for atom   18 (    32.2399 ppm):
                         Standard Origin              Atomic Origin
 NLMO      Total    Paramagnetic  Diamagnetic   Paramagnetic  Diamagnetic
   12       1.3079        0.3526       0.9553         0.2225       1.0855
   13       0.9849        1.2223      -0.2374        -0.0261       1.0109
   14       2.0416        1.5536       0.4880         0.2505       1.7911
   15      26.4394       -0.0287      26.4682         0.4254      26.0140
   17      -0.0276       -0.1053       0.0776        -1.0872       1.0596
   19      -0.0221       -0.6320       0.6099        -1.1209       1.0987
 Sum       30.7240        2.3625      28.3616        -1.3358      32.0598

 Contributions to Isotropic shielding for atom   19 (    32.2777 ppm):
                         Standard Origin              Atomic Origin
 NLMO      Total    Paramagnetic  Diamagnetic   Paramagnetic  Diamagnetic
    8       1.2546        0.5528       0.7017         0.3195       0.9351
   10       0.1580       -0.4002       0.5582        -1.1870       1.3449
   12       1.2026        0.7840       0.4186         0.2214       0.9813
   15       0.0061       -0.7167       0.7228        -1.0951       1.1012
   16       1.0820        1.2361      -0.1541        -0.0761       1.1580
   17      26.3640        0.0297      26.3343         0.4034      25.9607
   24      -0.0405       -0.8103       0.7699        -1.0902       1.0498
   30      -0.1546       -1.5847       1.4301        -1.0556       0.9010
 Sum       29.8722       -0.9093      30.7815        -3.5598      33.4320

 Contributions to Isotropic shielding for atom   20 (    32.8475 ppm):
                         Standard Origin              Atomic Origin
 NLMO      Total    Paramagnetic  Diamagnetic   Paramagnetic  Diamagnetic
    2      -0.0391       -1.2825       1.2434        -0.9206       0.8815
    5       1.2241        0.4885       0.7356         0.3718       0.8524
   13       1.4063       -0.0253       1.4316         0.4635       0.9428
   14      -0.0619       -0.2425       0.1807        -1.1871       1.1253
   18      26.4868        0.1445      26.3423         0.4112      26.0757
   19       1.9433        1.9486      -0.0053         0.1619       1.7814
 Sum       30.9596        1.0313      29.9283        -0.6994      31.6590

 Contributions to Isotropic shielding for atom   21 (    32.4832 ppm):
                         Standard Origin              Atomic Origin
 NLMO      Total    Paramagnetic  Diamagnetic   Paramagnetic  Diamagnetic
    1      -0.0987        0.1426      -0.2414        -1.0106       0.9119
    4      -0.0716       -1.4227       1.3511        -0.9641       0.8925
    5       0.9900        1.2319      -0.2420         0.1275       0.8624
   13       1.2145        0.8373       0.3772         0.2161       0.9984
   15      -0.0109        0.0686      -0.0796        -1.1485       1.1375
   18       2.0608        1.6649       0.3960         0.3072       1.7537
   19      26.4267       -0.0483      26.4749         0.4940      25.9327
 Sum       30.5107        2.4744      28.0364        -1.9784      32.4891

 Contributions to Isotropic shielding for atom   22 (    32.7374 ppm):
                         Standard Origin              Atomic Origin
 NLMO      Total    Paramagnetic  Diamagnetic   Paramagnetic  Diamagnetic
    1      -0.1406       -0.4075       0.2668        -1.2017       1.0611
    2      -0.0012       -1.3438       1.3426        -0.9433       0.9421
    6       0.9979        1.1945      -0.1967         0.1072       0.8906
    9       1.2770        0.4288       0.8482         0.2789       0.9981
   10      -0.1323        0.3196      -0.4519        -1.0043       0.8720
   11      -0.0868       -0.1070       0.0203        -1.1424       1.0557
   20      26.5535       -0.0234      26.5768         0.4509      26.1026
   21       1.9966        1.6606       0.3360         0.1219       1.8747
 Sum       30.4640        1.7219      28.7421        -3.3329      33.7969

 Contributions to Isotropic shielding for atom   23 (    32.1923 ppm):
                         Standard Origin              Atomic Origin
 NLMO      Total    Paramagnetic  Diamagnetic   Paramagnetic  Diamagnetic
    3      -0.0680       -1.3094       1.2414        -0.9174       0.8495
    6       0.9710        0.8749       0.0961        -0.0813       1.0523
    7       0.0276       -0.5231       0.5507        -1.0220       1.0496
    9       1.3896        0.2571       1.1326         0.5187       0.8710
   10      -0.1779       -0.0074      -0.1705        -1.6293       1.4514
   20       1.9463        1.6886       0.2576         0.1418       1.8045
   21      26.2556        0.0936      26.1620         0.4538      25.8018
 Sum       30.3443        1.0743      29.2699        -2.5358      32.8801

 Contributions to Isotropic shielding for atom   24 (    34.9256 ppm):
                         Standard Origin              Atomic Origin
 NLMO      Total    Paramagnetic  Diamagnetic   Paramagnetic  Diamagnetic
    9      -0.1751        0.3268      -0.5018        -1.2411       1.0661
   10       1.4272        2.1424      -0.7152         0.7267       0.7006
   22      23.0423       -0.5169      23.5591        -0.1393      23.1816
   43       4.1739        0.9489       3.2250         2.2462       1.9277
   44       5.4712        2.3294       3.1418         2.3154       3.1558
 Sum       33.9395        5.2306      28.7089         3.9078      30.0317

 Contributions to Isotropic shielding for atom   25 (    32.4865 ppm):
                         Standard Origin              Atomic Origin
 NLMO      Total    Paramagnetic  Diamagnetic   Paramagnetic  Diamagnetic
   12      -0.1616        0.3212      -0.4828        -1.3175       1.1560
   16       1.6607        0.0094       1.6513         0.6675       0.9932
   23       0.9393        1.6837      -0.7444        -0.0851       1.0244
   24       0.8620        2.0153      -1.1533        -0.2124       1.0744
   25      26.5746       -0.1512      26.7258         0.4565      26.1181
   31       0.2077       -0.6027       0.8104        -0.8076       1.0152
 Sum       30.0827        3.2756      26.8071        -1.2986      31.3813

 Contributions to Isotropic shielding for atom   26 (    32.4412 ppm):
                         Standard Origin              Atomic Origin
 NLMO      Total    Paramagnetic  Diamagnetic   Paramagnetic  Diamagnetic
    8      -0.1390        0.0821      -0.2211        -1.1189       0.9800
   10       0.0265       -0.0859       0.1124        -1.2761       1.3027
   23       1.5114       -0.6515       2.1630         0.5766       0.9349
   24      -0.1267        0.1453      -0.2720        -1.0204       0.8938
   26      26.2027        0.2799      25.9228         0.3918      25.8109
   27       2.1087        0.4130       1.6957         0.2899       1.8188
   28       1.9631        2.0771      -0.1140         0.1140       1.8491
 Sum       31.5468        2.2600      29.2868        -2.0433      33.5901

 Contributions to Isotropic shielding for atom   27 (    32.5885 ppm):
                         Standard Origin              Atomic Origin
 NLMO      Total    Paramagnetic  Diamagnetic   Paramagnetic  Diamagnetic
   12      -0.0737        0.0932      -0.1669        -1.0010       0.9274
   23       1.4979       -0.7515       2.2494         0.4857       1.0122
   26       2.1057        0.4079       1.6978         0.2598       1.8459
   27      26.4006        0.2834      26.1172         0.3674      26.0332
   28       1.9449        2.0069      -0.0620         0.0949       1.8500
 Sum       31.8754        2.0399      29.8355         0.2067      31.6686

 Contributions to Isotropic shielding for atom   28 (    32.4966 ppm):
                         Standard Origin              Atomic Origin
 NLMO      Total    Paramagnetic  Diamagnetic   Paramagnetic  Diamagnetic
   23       1.1627        0.8729       0.2899         0.1299       1.0328
   24      -0.1361        0.6202      -0.7564        -1.0884       0.9522
   26       2.0080        1.6821       0.3259         0.1378       1.8702
   27       2.0279        1.6324       0.3955         0.1774       1.8505
   28      26.3336       -0.0345      26.3681         0.4052      25.9284
 Sum       31.3961        4.7730      26.6231        -0.2380      31.6341

 Contributions to Isotropic shielding for atom   29 (    31.8503 ppm):
                         Standard Origin              Atomic Origin
 NLMO      Total    Paramagnetic  Diamagnetic   Paramagnetic  Diamagnetic
   23      -0.1487        0.2377      -0.3864        -1.0615       0.9128
   24       1.5186       -0.9385       2.4571         0.6322       0.8864
   29      25.9705        0.3109      25.6596         0.4318      25.5387
   30       1.9996        0.6280       1.3715         0.1851       1.8144
   31       1.8547        2.0821      -0.2273         0.0012       1.8535
   43      -0.8521       -0.1032      -0.7489         0.4481      -1.3002
 Sum       30.3426        2.2169      28.1257         0.6370      29.7057

 Contributions to Isotropic shielding for atom   30 (    32.4175 ppm):
                         Standard Origin              Atomic Origin
 NLMO      Total    Paramagnetic  Diamagnetic   Paramagnetic  Diamagnetic
   10       0.0947       -0.2417       0.3365        -0.9083       1.0030
   16      -0.0413        0.0122      -0.0535        -1.0060       0.9647
   24       1.5888       -0.7845       2.3733         0.6151       0.9737
   29       2.0716        0.6400       1.4316         0.1969       1.8747
   30      26.4041        0.2861      26.1180         0.4116      25.9925
   31       1.8833        2.1950      -0.3117         0.0576       1.8257
 Sum       32.0013        2.1070      29.8943        -0.6331      32.6344

 Contributions to Isotropic shielding for atom   31 (    32.4333 ppm):
                         Standard Origin              Atomic Origin
 NLMO      Total    Paramagnetic  Diamagnetic   Paramagnetic  Diamagnetic
   23      -0.1560        0.7066      -0.8626        -1.0768       0.9207
   24       1.1754        0.5270       0.6485         0.1641       1.0114
   29       1.9801        1.7597       0.2204         0.0794       1.9007
   30       1.9408        1.8410       0.0998         0.0944       1.8464
   31      26.5216        0.0063      26.5153         0.4571      26.0644
 Sum       31.4619        4.8406      26.6213        -0.2817      31.7436
 
 1\1\GINC-COMPUTE-6-16\SP\RHF\STO-3G\C10H20O1\YTSAI.IQUIR\03-Aug-2021\0
 \\# rhf/STO-3G nmr pop=nbo\\comment\\0,1\C,0,-2.065833177,-0.197648735
 ,-3.058453586\C,0,-1.521201043,-0.153773252,-1.632480554\C,0,0.6500308
 96,-0.707516471,-0.358778418\C,0,-0.702201288,1.343450341,0.238799386\
 C,0,-0.056758406,0.045636363,0.783562985\C,0,-1.132434616,1.266726844,
 -1.228789775\C,0,-0.332487259,-1.112665416,-1.469926045\O,0,1.29167667
 6,-1.884047699,0.116423374\C,0,0.808268203,0.362590428,2.04035786\C,0,
 2.18170647,0.954375837,1.711193941\C,0,0.975435215,-0.849523466,2.9636
 54191\H,0,-1.319462316,0.149415376,-3.781057531\H,0,-2.355375365,-1.21
 7803718,-3.331716293\H,0,-2.950990948,0.439796277,-3.155327949\H,0,-2.
 325475351,-0.488927842,-0.963403049\H,0,1.426772112,-0.063760467,-0.78
 9795761\H,0,-0.029949032,2.201808612,0.349782378\H,0,-1.580354732,1.57
 1478366,0.857146474\H,0,-0.879849097,-0.596392546,1.13131295\H,0,-0.30
 7324083,1.614728331,-1.864160565\H,0,-1.964745345,1.960846339,-1.39606
 9911\H,0,0.234898504,-1.189465962,-2.407127704\H,0,-0.71749388,-2.1251
 53688,-1.288648416\H,0,1.737095629,-2.302193571,-0.640145861\H,0,0.262
 234931,1.114016825,2.627861874\H,0,2.828092147,0.225614031,1.211748401
 \H,0,2.097638963,1.833578226,1.065956524\H,0,2.691004592,1.268790537,2
 .628949062\H,0,1.622905968,-1.616996972,2.531837566\H,0,0.006664576,-1
 .304718327,3.193803129\H,0,1.427511056,-0.542264603,3.913491325\\Versi
 on=EM64L-G09RevC.01\State=1-A\HF=-459.6121875\RMSD=4.876e-09\Dipole=-0
 .0454668,0.1729643,-0.5065559\Quadrupole=0.6082818,-0.5376381,-0.07064
 37,-0.1627722,-1.8913046,2.1046639\PG=C01 [X(C10H20O1)]\\@


 TO DRY ONE'S EYES AND LAUGH AT A FALL,
 AND BAFFLED, GET UP AND BEGIN AGAIN.
           R. BROWNING
 Job cpu time:  0 days  0 hours  0 minutes 40.5 seconds.
 File lengths (MBytes):  RWF=      5 Int=      0 D2E=      0 Chk=      1 Scr=      1
 Normal termination of Gaussian 09 at Tue Aug  3 16:36:41 2021.
