 Entering Gaussian System, Link 0=g09
 Input=/home/ytsai.iquir/menthol/03_menthol_M0040_MMFF_NMR_rhf_STO-3G_nbo.gjc
 Output=/home/ytsai.iquir/menthol/03_menthol_M0040_MMFF_NMR_rhf_STO-3G_nbo.log
 Initial command:
 /share/apps/Gaussian09/EM64T.SSE4.2-enabled/g09/l1.exe /tmp/Gau-9706.inp -scrdir=/tmp/
 Entering Link 1 = /share/apps/Gaussian09/EM64T.SSE4.2-enabled/g09/l1.exe PID=      9707.
  
 Copyright (c) 1988,1990,1992,1993,1995,1998,2003,2009,2011,
            Gaussian, Inc.  All Rights Reserved.
  
 This is part of the Gaussian(R) 09 program.  It is based on
 the Gaussian(R) 03 system (copyright 2003, Gaussian, Inc.),
 the Gaussian(R) 98 system (copyright 1998, Gaussian, Inc.),
 the Gaussian(R) 94 system (copyright 1995, Gaussian, Inc.),
 the Gaussian 92(TM) system (copyright 1992, Gaussian, Inc.),
 the Gaussian 90(TM) system (copyright 1990, Gaussian, Inc.),
 the Gaussian 88(TM) system (copyright 1988, Gaussian, Inc.),
 the Gaussian 86(TM) system (copyright 1986, Carnegie Mellon
 University), and the Gaussian 82(TM) system (copyright 1983,
 Carnegie Mellon University). Gaussian is a federally registered
 trademark of Gaussian, Inc.
  
 This software contains proprietary and confidential information,
 including trade secrets, belonging to Gaussian, Inc.
  
 This software is provided under written license and may be
 used, copied, transmitted, or stored only in accord with that
 written license.
  
 The following legend is applicable only to US Government
 contracts under FAR:
  
                    RESTRICTED RIGHTS LEGEND
  
 Use, reproduction and disclosure by the US Government is
 subject to restrictions as set forth in subparagraphs (a)
 and (c) of the Commercial Computer Software - Restricted
 Rights clause in FAR 52.227-19.
  
 Gaussian, Inc.
 340 Quinnipiac St., Bldg. 40, Wallingford CT 06492
  
  
 ---------------------------------------------------------------
 Warning -- This program may not be used in any manner that
 competes with the business of Gaussian, Inc. or will provide
 assistance to any competitor of Gaussian, Inc.  The licensee
 of this program is prohibited from giving any competitor of
 Gaussian, Inc. access to this program.  By using this program,
 the user acknowledges that Gaussian, Inc. is engaged in the
 business of creating and licensing software in the field of
 computational chemistry and represents and warrants to the
 licensee that it is not a competitor of Gaussian, Inc. and that
 it will not use this program in any manner prohibited above.
 ---------------------------------------------------------------
  

 Cite this work as:
 Gaussian 09, Revision C.01,
 M. J. Frisch, G. W. Trucks, H. B. Schlegel, G. E. Scuseria, 
 M. A. Robb, J. R. Cheeseman, G. Scalmani, V. Barone, B. Mennucci, 
 G. A. Petersson, H. Nakatsuji, M. Caricato, X. Li, H. P. Hratchian, 
 A. F. Izmaylov, J. Bloino, G. Zheng, J. L. Sonnenberg, M. Hada, 
 M. Ehara, K. Toyota, R. Fukuda, J. Hasegawa, M. Ishida, T. Nakajima, 
 Y. Honda, O. Kitao, H. Nakai, T. Vreven, J. A. Montgomery, Jr., 
 J. E. Peralta, F. Ogliaro, M. Bearpark, J. J. Heyd, E. Brothers, 
 K. N. Kudin, V. N. Staroverov, T. Keith, R. Kobayashi, J. Normand, 
 K. Raghavachari, A. Rendell, J. C. Burant, S. S. Iyengar, J. Tomasi, 
 M. Cossi, N. Rega, J. M. Millam, M. Klene, J. E. Knox, J. B. Cross, 
 V. Bakken, C. Adamo, J. Jaramillo, R. Gomperts, R. E. Stratmann, 
 O. Yazyev, A. J. Austin, R. Cammi, C. Pomelli, J. W. Ochterski, 
 R. L. Martin, K. Morokuma, V. G. Zakrzewski, G. A. Voth, 
 P. Salvador, J. J. Dannenberg, S. Dapprich, A. D. Daniels, 
 O. Farkas, J. B. Foresman, J. V. Ortiz, J. Cioslowski, 
 and D. J. Fox, Gaussian, Inc., Wallingford CT, 2010.
 
 ******************************************
 Gaussian 09:  EM64L-G09RevC.01 23-Sep-2011
                 3-Aug-2021 
 ******************************************
 %nprocshared=4
 Will use up to    4 processors via shared memory.
 ------------------------
 # rhf/STO-3G nmr pop=nbo
 ------------------------
 1/38=1/1;
 2/12=2,17=6,18=5,40=1/2;
 3/6=3,11=1,16=1,25=1,30=1,116=1/1,2,8,3;
 4//1;
 5/5=2,38=5/2;
 8/6=1,10=90,11=11/1;
 10/13=100,45=16/2;
 6/7=2,8=2,9=2,10=2,28=1,64=1/1,7;
 99/9=1/99;
 -------
 comment
 -------
 Charge =  0 Multiplicity = 1
 Symbolic Z-Matrix:
 6                    -0.95396   0.37979  -3.20828 
 6                    -1.16733   0.04781  -1.73169 
 6                    -0.29939  -1.33773   0.22496 
 6                    -1.23375   1.00989   0.60932 
 6                    -0.3275   -0.11164   1.16305 
 6                    -1.07068   1.31215  -0.87613 
 6                    -0.15384  -1.00307  -1.26224 
 8                    -1.53765  -2.04702   0.36879 
 6                     1.06367   0.40312   1.64387 
 6                     2.11067   0.64892   0.56015 
 6                     1.65903  -0.55278   2.69028 
 1                    -1.05406  -0.51858  -3.82643 
 1                    -1.69542   1.10806  -3.55338 
 1                     0.04169   0.80175  -3.38258 
 1                    -2.17886  -0.36623  -1.62695 
 1                     0.49069  -2.03805   0.51348 
 1                    -1.09985   1.93171   1.18765 
 1                    -2.27801   0.70838   0.7716 
 1                    -0.84092  -0.42795   2.08435 
 1                    -0.12012   1.82298  -1.05583 
 1                    -1.85325   2.01921  -1.17915 
 1                     0.86129  -0.65685  -1.47826 
 1                    -0.30319  -1.91787  -1.85065 
 1                    -1.59341  -2.35463   1.28956 
 1                     0.90142   1.35891   2.16017 
 1                     2.41947  -0.28195   0.07539 
 1                     1.75823   1.34502  -0.20155 
 1                     3.01174   1.09252   0.99978 
 1                     1.89751  -1.53019   2.25959 
 1                     0.963    -0.70676   3.5216 
 1                     2.58281  -0.13891   3.10952 
 
                          Input orientation:                          
 ---------------------------------------------------------------------
 Center     Atomic      Atomic             Coordinates (Angstroms)
 Number     Number       Type             X           Y           Z
 ---------------------------------------------------------------------
      1          6           0       -0.953964    0.379787   -3.208276
      2          6           0       -1.167329    0.047811   -1.731687
      3          6           0       -0.299388   -1.337734    0.224963
      4          6           0       -1.233753    1.009890    0.609325
      5          6           0       -0.327503   -0.111642    1.163055
      6          6           0       -1.070683    1.312149   -0.876130
      7          6           0       -0.153841   -1.003070   -1.262236
      8          8           0       -1.537654   -2.047020    0.368787
      9          6           0        1.063666    0.403116    1.643868
     10          6           0        2.110669    0.648917    0.560150
     11          6           0        1.659027   -0.552776    2.690278
     12          1           0       -1.054057   -0.518581   -3.826435
     13          1           0       -1.695424    1.108062   -3.553385
     14          1           0        0.041692    0.801750   -3.382578
     15          1           0       -2.178857   -0.366227   -1.626945
     16          1           0        0.490687   -2.038052    0.513476
     17          1           0       -1.099849    1.931715    1.187652
     18          1           0       -2.278013    0.708380    0.771604
     19          1           0       -0.840919   -0.427952    2.084354
     20          1           0       -0.120122    1.822977   -1.055833
     21          1           0       -1.853254    2.019209   -1.179146
     22          1           0        0.861288   -0.656850   -1.478261
     23          1           0       -0.303186   -1.917868   -1.850655
     24          1           0       -1.593413   -2.354628    1.289557
     25          1           0        0.901416    1.358913    2.160166
     26          1           0        2.419471   -0.281949    0.075394
     27          1           0        1.758235    1.345020   -0.201555
     28          1           0        3.011740    1.092516    0.999779
     29          1           0        1.897512   -1.530194    2.259590
     30          1           0        0.962997   -0.706756    3.521599
     31          1           0        2.582811   -0.138910    3.109524
 ---------------------------------------------------------------------
                    Distance matrix (angstroms):
                    1          2          3          4          5
     1  C    0.000000
     2  C    1.528413   0.000000
     3  C    3.894288   2.549812   0.000000
     4  C    3.879354   2.531866   2.555800   0.000000
     5  C    4.443251   3.018321   1.544055   1.544584   0.000000
     6  C    2.514324   1.529663   2.971394   1.524641   2.595722
     7  C    2.517849   1.533590   1.531321   2.953127   2.589756
     8  O    4.361819   2.989557   1.434251   3.081382   2.416819
     9  C    5.254967   4.061768   2.627121   2.591639   1.559330
    10  C    4.864713   4.044640   3.141259   3.364206   2.624239
    11  C    6.518461   5.282308   3.244892   3.891076   2.544271
    12  H    1.095082   2.172924   4.201709   4.695155   5.058506
    13  H    1.095101   2.172923   4.712403   4.189383   5.060008
    14  H    1.095337   2.180733   4.208097   4.195876   4.651169
    15  H    2.134832   1.097992   2.811724   2.790667   3.358038
    16  H    4.667376   3.484337   1.094488   3.503261   2.191448
    17  H    4.664112   3.475081   3.500971   1.096427   2.184589
    18  H    4.207199   2.817168   2.898337   1.098964   2.151780
    19  H    5.355105   3.859412   2.139695   2.097002   1.101108
    20  H    2.722333   2.169017   3.415065   2.161951   2.951138
    21  H    2.759311   2.159213   3.956651   2.145025   3.514874
    22  H    2.713431   2.162420   2.170656   3.394884   2.947376
    23  H    2.746974   2.150533   2.155171   3.935635   3.513615
    24  H    5.302492   3.883449   1.960085   3.451384   2.578666
    25  H    5.763791   4.598393   3.529709   2.661931   2.160325
    26  H    4.753992   4.029816   2.920487   3.911519   2.959371
    27  H    4.162699   3.547250   3.407770   3.117985   2.886923
    28  H    5.826020   5.100680   4.179715   4.264211   3.553477
    29  H    6.455734   5.273865   3.000519   4.356630   2.857512
    30  H    7.081421   5.718800   3.586022   4.031616   2.753594
    31  H    7.258954   6.126642   4.250287   4.704987   3.501345
                    6          7          8          9         10
     6  C    0.000000
     7  C    2.519905   0.000000
     8  O    3.612741   2.380127   0.000000
     9  C    3.425227   3.450380   3.794188   0.000000
    10  C    3.552996   3.343374   4.540370   1.526787   0.000000
    11  C    4.862976   4.371684   4.223844   1.537257   2.487065
    12  H    3.472196   2.760478   4.491089   5.937886   5.533594
    13  H    2.756745   3.476021   5.036155   5.926294   5.623017
    14  H    2.789295   2.791319   4.968155   5.144755   4.455236
    15  H    2.146793   2.153897   2.686848   4.669482   4.920766
    16  H    3.948764   2.154009   2.033515   2.750526   3.137886
    17  H    2.154973   3.938254   4.085651   2.688037   3.513795
    18  H    2.130073   3.402599   2.881427   3.467110   4.394176
    19  H    3.441687   3.464462   2.459673   2.124181   3.492093
    20  H    1.093986   2.833775   4.360712   3.271963   2.994369
    21  H    1.097346   3.468297   4.362329   4.369163   4.540433
    22  H    2.823479   1.094085   3.331529   3.303358   2.724169
    23  H    3.460023   1.097905   2.542934   4.412136   4.269316
    24  H    4.290536   3.226565   0.972393   3.845876   4.824266
    25  H    3.620837   4.290147   4.556147   1.098379   2.127543
    26  H    3.953192   2.988511   4.342855   2.183490   1.094010
    27  H    2.908421   3.208520   4.763833   2.185222   1.090395
    28  H    4.498161   4.419173   5.563436   2.164513   1.096350
    29  H    5.169317   4.109643   3.955074   2.193650   2.771653
    30  H    5.248986   4.921402   4.241437   2.183534   3.453286
    31  H    5.598128   5.229562   5.303843   2.179390   2.709779
                   11         12         13         14         15
    11  C    0.000000
    12  H    7.059004   0.000000
    13  H    7.279701   1.769710   0.000000
    14  H    6.428849   1.772272   1.772166   0.000000
    15  H    5.779496   2.475104   2.473541   3.062231   0.000000
    16  H    2.882626   4.850758   5.587170   4.842036   3.808263
    17  H    4.005244   5.580960   4.848767   4.844269   3.790350
    18  H    4.557643   4.913804   4.382315   4.758885   2.630143
    19  H    2.575356   5.915324   5.905388   5.672611   3.945583
    20  H    4.779427   3.745846   3.038165   2.546141   3.058950
    21  H    5.824403   3.753296   2.547962   3.150896   2.448846
    22  H    4.245461   3.033411   3.736017   2.534891   3.057622
    23  H    5.131649   2.534861   3.740838   3.140390   2.444541
    24  H    3.973293   5.462174   5.954385   5.870701   3.578053
    25  H    2.123570   6.571776   6.281016   5.636627   5.177490
    26  H    2.736647   5.229307   5.659728   4.334260   4.904047
    27  H    3.460371   4.951944   4.818575   3.655211   4.523361
    28  H    2.719302   6.512962   6.548964   5.301960   5.997492
    29  H    1.094400   6.839212   7.325316   6.380916   5.751240
    30  H    1.095109   7.622172   7.772783   7.126854   6.041085
    31  H    1.095641   7.840822   8.015771   7.034879   6.720067
                   16         17         18         19         20
    16  H    0.000000
    17  H    4.329361   0.000000
    18  H    3.908353   1.748632   0.000000
    19  H    2.614049   2.537547   2.253841   0.000000
    20  H    4.212287   2.450492   3.039464   3.930267   0.000000
    21  H    4.982007   2.485358   2.388329   4.202838   1.748559
    22  H    2.451955   4.201645   4.096457   3.955013   2.700214
    23  H    2.496756   4.968427   4.203970   4.241851   3.828730
    24  H    2.246329   4.315869   3.181033   2.215859   5.012367
    25  H    3.797322   2.297596   3.529882   2.496871   3.406104
    26  H    2.644999   4.303840   4.850960   3.832411   3.487108
    27  H    3.682815   3.231524   4.200434   3.889011   2.118126
    28  H    4.048785   4.200561   5.308589   4.281484   3.816762
    29  H    2.299128   4.702982   4.965917   2.957136   5.128999
    30  H    3.323286   4.082177   4.479869   2.323256   5.340934
    31  H    3.837081   4.641450   5.459980   3.585589   5.339012
                   21         22         23         24         25
    21  H    0.000000
    22  H    3.823546   0.000000
    23  H    4.284181   1.756372   0.000000
    24  H    5.029161   4.070482   3.422919   0.000000
    25  H    4.378950   4.159695   5.317428   4.557688   0.000000
    26  H    5.012522   2.232113   3.714667   4.676903   3.056663
    27  H    3.801719   2.538105   4.197073   5.210024   2.512381
    28  H    5.410604   3.718253   5.308118   5.759706   2.423001
    29  H    6.204145   3.975930   4.678405   3.715807   3.057618
    30  H    6.120388   5.001143   5.650763   3.772629   2.474728
    31  H    6.536730   4.927441   6.008081   5.065820   2.443735
                   26         27         28         29         30
    26  H    0.000000
    27  H    1.777910   0.000000
    28  H    1.759097   1.754490   0.000000
    29  H    2.569293   3.787280   3.115643   0.000000
    30  H    3.765382   4.324819   3.714068   1.773143   0.000000
    31  H    3.041888   3.720916   2.480205   1.768529   1.765234
                   31
    31  H    0.000000
 Stoichiometry    C10H20O
 Framework group  C1[X(C10H20O)]
 Deg. of freedom    87
 Full point group                 C1      NOp   1
 Largest Abelian subgroup         C1      NOp   1
 Largest concise Abelian subgroup C1      NOp   1
                         Standard orientation:                         
 ---------------------------------------------------------------------
 Center     Atomic      Atomic             Coordinates (Angstroms)
 Number     Number       Type             X           Y           Z
 ---------------------------------------------------------------------
      1          6           0        3.218633   -0.773674   -0.599658
      2          6           0        2.034385   -0.025439    0.011694
      3          6           0       -0.181215    1.123328   -0.510788
      4          6           0        0.120246   -0.190407    1.660693
      5          6           0       -0.890488    0.376261    0.639398
      6          6           0        1.335550   -0.890087    1.062351
      7          6           0        1.046652    0.406219   -1.079155
      8          8           0        0.273538    2.390364   -0.015920
      9          6           0       -1.972912   -0.659222    0.206220
     10          6           0       -1.554126   -1.681921   -0.847244
     11          6           0       -3.238759    0.059926   -0.287355
     12          1           0        3.739897   -0.145193   -1.329384
     13          1           0        3.939930   -1.057001    0.174101
     14          1           0        2.893356   -1.686674   -1.109943
     15          1           0        2.428044    0.872306    0.506339
     16          1           0       -0.876548    1.344196   -1.326651
     17          1           0       -0.382284   -0.865699    2.363258
     18          1           0        0.488622    0.647672    2.268677
     19          1           0       -1.444374    1.133165    1.216240
     20          1           0        1.043760   -1.852606    0.631980
     21          1           0        2.040014   -1.123993    1.870551
     22          1           0        0.742263   -0.466007   -1.665322
     23          1           0        1.566149    1.081492   -1.771633
     24          1           0       -0.510862    2.897583    0.254253
     25          1           0       -2.269955   -1.220517    1.102406
     26          1           0       -1.356665   -1.210682   -1.814612
     27          1           0       -0.673623   -2.248526   -0.542884
     28          1           0       -2.357986   -2.410208   -1.006580
     29          1           0       -3.055369    0.619577   -1.209781
     30          1           0       -3.611868    0.759633    0.467935
     31          1           0       -4.038601   -0.661333   -0.488520
 ---------------------------------------------------------------------
 Rotational constants (GHZ):      1.5621403      0.7803302      0.6877416
 Standard basis: STO-3G (5D, 7F)
 There are    75 symmetry adapted basis functions of A   symmetry.
 Integral buffers will be    131072 words long.
 Raffenetti 1 integral format.
 Two-electron integral symmetry is turned on.
    75 basis functions,   225 primitive gaussians,    75 cartesian basis functions
    44 alpha electrons       44 beta electrons
       nuclear repulsion energy       700.3629442384 Hartrees.
 NAtoms=   31 NActive=   31 NUniq=   31 SFac= 1.00D+00 NAtFMM=   60 NAOKFM=F Big=F
 One-electron integrals computed using PRISM.
 NBasis=    75 RedAO= T  NBF=    75
 NBsUse=    75 1.00D-06 NBFU=    75
 Harris functional with IExCor=  205 diagonalized for initial guess.
 ExpMin= 1.69D-01 ExpMax= 1.31D+02 ExpMxC= 1.31D+02 IAcc=1 IRadAn=         1 AccDes= 0.00D+00
 HarFok:  IExCor=  205 AccDes= 0.00D+00 IRadAn=         1 IDoV= 1
 ScaDFX=  1.000000  1.000000  1.000000  1.000000
 FoFCou: FMM=F IPFlag=           0 FMFlag=      100000 FMFlg1=           0
         NFxFlg=           0 DoJE=T BraDBF=F KetDBF=T FulRan=T
         Omega=  0.000000  0.000000  1.000000  0.000000  0.000000 ICntrl=     500 IOpCl=  0
         NMat0=    1 NMatS0=    1 NMatT0=    0 NMatD0=    1 NMtDS0=    0 NMtDT0=    0
         I1Cent=           4 NGrid=           0.
 Petite list used in FoFCou.
 Initial guess orbital symmetries:
       Occupied  (A) (A) (A) (A) (A) (A) (A) (A) (A) (A) (A) (A)
                 (A) (A) (A) (A) (A) (A) (A) (A) (A) (A) (A) (A)
                 (A) (A) (A) (A) (A) (A) (A) (A) (A) (A) (A) (A)
                 (A) (A) (A) (A) (A) (A) (A) (A)
       Virtual   (A) (A) (A) (A) (A) (A) (A) (A) (A) (A) (A) (A)
                 (A) (A) (A) (A) (A) (A) (A) (A) (A) (A) (A) (A)
                 (A) (A) (A) (A) (A) (A) (A)
 The electronic state of the initial guess is 1-A.
 Requested convergence on RMS density matrix=1.00D-08 within 128 cycles.
 Requested convergence on MAX density matrix=1.00D-06.
 Requested convergence on             energy=1.00D-06.
 No special actions if energy rises.
 Keep R1 ints in memory in canonical form, NReq=4898789.
 SCF Done:  E(RHF) =  -459.614229533     A.U. after   10 cycles
             Convg  =    0.8258D-08             -V/T =  2.0089
 Range of M.O.s used for correlation:     1    75
 NBasis=    75 NAE=    44 NBE=    44 NFC=     0 NFV=     0
 NROrb=     75 NOA=    44 NOB=    44 NVA=    31 NVB=    31
          Differentiating once with respect to magnetic field using GIAOs.
          Electric field/nuclear overlap derivatives assumed to be zero.
          Keep R3 ints in memory in canonical form, NReq=4863575.
 FoFCou: FMM=F IPFlag=           0 FMFlag=           0 FMFlg1=           0
         NFxFlg=           0 DoJE=F BraDBF=F KetDBF=T FulRan=T
         Omega=  0.000000  0.000000  1.000000  0.000000  0.000000 ICntrl=    6100 IOpCl=  0
         NMat0=    1 NMatS0=    1 NMatT0=    0 NMatD0=    1 NMtDS0=    0 NMtDT0=    0
         I1Cent=           7 NGrid=          31.
 Symmetry not used in FoFCou.
          There are     3 degrees of freedom in the 1st order CPHF.  IDoFFX=0.
      3 vectors produced by pass  0 Test12= 4.55D-14 3.33D-08 XBig12= 6.30D+00 3.94D-01.
 AX will form     3 AO Fock derivatives at one time.
      3 vectors produced by pass  1 Test12= 4.55D-14 3.33D-08 XBig12= 9.38D-03 1.46D-02.
      3 vectors produced by pass  2 Test12= 4.55D-14 3.33D-08 XBig12= 1.06D-04 2.42D-03.
      3 vectors produced by pass  3 Test12= 4.55D-14 3.33D-08 XBig12= 1.55D-06 4.52D-04.
      3 vectors produced by pass  4 Test12= 4.55D-14 3.33D-08 XBig12= 1.97D-08 2.90D-05.
      3 vectors produced by pass  5 Test12= 4.55D-14 3.33D-08 XBig12= 2.53D-10 2.65D-06.
      3 vectors produced by pass  6 Test12= 4.55D-14 3.33D-08 XBig12= 2.91D-12 2.86D-07.
 Inverted reduced A of dimension    21 with in-core refinement.
 Calculating GIAO nuclear magnetic shielding tensors.
 SCF GIAO Magnetic shielding tensor (ppm):
      1  C    Isotropic =   220.8715   Anisotropy =    28.6210
   XX=   231.8551   YX=    -8.3828   ZX=    -7.4084
   XY=   -11.4109   YY=   215.7208   ZY=     3.9606
   XZ=    -9.4327   YZ=     3.4589   ZZ=   215.0386
   Eigenvalues:   210.9342   211.7281   239.9522
      2  C    Isotropic =   216.6005   Anisotropy =     7.1668
   XX=   218.9495   YX=    -1.7845   ZX=    -1.3992
   XY=    -3.6087   YY=   213.6491   ZY=    -2.2487
   XZ=    -4.6555   YZ=    -1.7135   ZZ=   217.2030
   Eigenvalues:   210.9657   217.4575   221.3783
      3  C    Isotropic =   190.0826   Anisotropy =    40.2805
   XX=   181.0983   YX=    10.1185   ZX=     0.3686
   XY=    11.1618   YY=   208.9914   ZY=    13.8536
   XZ=    -0.8492   YZ=    12.8225   ZZ=   180.1580
   Eigenvalues:   172.3297   180.9817   216.9363
      4  C    Isotropic =   215.6029   Anisotropy =    16.8042
   XX=   222.8273   YX=    -2.0406   ZX=     4.0531
   XY=    -4.9379   YY=   207.2863   ZY=    -6.0864
   XZ=     5.0407   YZ=    -3.9246   ZZ=   216.6951
   Eigenvalues:   204.9962   215.0067   226.8057
      5  C    Isotropic =   209.0912   Anisotropy =    13.1721
   XX=   210.1803   YX=     3.9462   ZX=     1.6091
   XY=     7.5457   YY=   213.5329   ZY=     4.5849
   XZ=    -4.8012   YZ=    -0.5663   ZZ=   203.5606
   Eigenvalues:   201.9588   207.4422   217.8727
      6  C    Isotropic =   217.5150   Anisotropy =    15.6590
   XX=   220.4663   YX=    -1.3606   ZX=    -7.2380
   XY=     2.2177   YY=   213.3238   ZY=    -3.1176
   XZ=    -8.4312   YZ=    -3.6379   ZZ=   218.7547
   Eigenvalues:   210.0269   214.5637   227.9543
      7  C    Isotropic =   216.5966   Anisotropy =    17.2443
   XX=   223.8065   YX=    -8.9921   ZX=    -0.0171
   XY=    -6.0875   YY=   213.3461   ZY=     0.0105
   XZ=     4.0571   YZ=    -2.1813   ZZ=   212.6370
   Eigenvalues:   209.3999   212.2971   228.0927
      8  O    Isotropic =   347.9496   Anisotropy =    93.4553
   XX=   372.3112   YX=   -39.3733   ZX=   -46.8315
   XY=   -22.2863   YY=   347.1797   ZY=     3.8106
   XZ=   -29.3340   YZ=    19.4497   ZZ=   324.3580
   Eigenvalues:   302.6536   330.9421   410.2531
      9  C    Isotropic =   211.5534   Anisotropy =    19.6717
   XX=   218.4122   YX=     7.2939   ZX=     3.4565
   XY=     9.0482   YY=   210.1239   ZY=     1.2105
   XZ=     6.5100   YZ=     0.7941   ZZ=   206.1241
   Eigenvalues:   203.2953   206.6969   224.6679
     10  C    Isotropic =   222.8759   Anisotropy =    18.7037
   XX=   221.4193   YX=    -2.3435   ZX=    -2.0173
   XY=    -4.0553   YY=   225.3448   ZY=     8.8919
   XZ=    -4.3600   YZ=    11.3815   ZZ=   221.8635
   Eigenvalues:   213.2992   219.9834   235.3450
     11  C    Isotropic =   220.1993   Anisotropy =    28.9474
   XX=   232.4743   YX=   -10.9028   ZX=     4.4460
   XY=   -11.4367   YY=   217.7038   ZY=     2.5065
   XZ=    10.3652   YZ=     2.5341   ZZ=   210.4197
   Eigenvalues:   204.8132   216.2871   239.4975
     12  H    Isotropic =    32.3742   Anisotropy =    13.8973
   XX=    35.7557   YX=     1.9750   ZX=    -6.3772
   XY=     1.6684   YY=    29.1532   ZY=    -3.2775
   XZ=    -6.4125   YZ=    -3.6253   ZZ=    32.2137
   Eigenvalues:    26.1095    29.3741    41.6391
     13  H    Isotropic =    32.3979   Anisotropy =    14.1564
   XX=    38.4683   YX=    -4.2320   ZX=     4.1863
   XY=    -4.4393   YY=    27.8131   ZY=    -2.0423
   XZ=     3.9197   YZ=    -1.8057   ZZ=    30.9123
   Eigenvalues:    26.2082    29.1499    41.8355
     14  H    Isotropic =    32.7244   Anisotropy =    11.0488
   XX=    31.3214   YX=    -1.2264   ZX=    -1.1549
   XY=    -1.3801   YY=    36.2581   ZY=     5.6495
   XZ=    -1.2532   YZ=     5.6462   ZZ=    30.5936
   Eigenvalues:    27.0788    31.0041    40.0902
     15  H    Isotropic =    32.2473   Anisotropy =    11.5259
   XX=    33.6597   YX=     3.7325   ZX=     2.2521
   XY=     3.6378   YY=    34.7604   ZY=     4.3787
   XZ=     2.3694   YZ=     4.2781   ZZ=    28.3220
   Eigenvalues:    26.1179    30.6928    39.9312
     16  H    Isotropic =    31.9903   Anisotropy =     9.4374
   XX=    33.3748   YX=    -0.6042   ZX=     4.6626
   XY=    -0.2174   YY=    29.7397   ZY=    -2.4070
   XZ=     4.1598   YZ=    -3.9033   ZZ=    32.8563
   Eigenvalues:    26.9053    30.7837    38.2819
     17  H    Isotropic =    32.4743   Anisotropy =    13.1700
   XX=    31.4916   YX=     1.8207   ZX=    -3.1666
   XY=     2.0326   YY=    29.2629   ZY=    -6.1043
   XZ=    -2.9417   YZ=    -5.6755   ZZ=    36.6684
   Eigenvalues:    25.9989    30.1696    41.2543
     18  H    Isotropic =    32.0396   Anisotropy =    13.1705
   XX=    29.0453   YX=     1.0679   ZX=     3.3215
   XY=     0.6255   YY=    31.3793   ZY=     6.2003
   XZ=     3.2373   YZ=     5.8994   ZZ=    35.6943
   Eigenvalues:    26.3721    28.9268    40.8199
     19  H    Isotropic =    32.8967   Anisotropy =    11.3609
   XX=    33.8386   YX=    -3.1224   ZX=    -2.3416
   XY=    -4.0674   YY=    33.8102   ZY=     5.3308
   XZ=    -2.0127   YZ=     5.1247   ZZ=    31.0412
   Eigenvalues:    26.9762    31.2433    40.4706
     20  H    Isotropic =    32.9066   Anisotropy =     9.5734
   XX=    31.7924   YX=     1.1175   ZX=     0.1692
   XY=     0.8696   YY=    38.9120   ZY=     1.4461
   XZ=     0.2345   YZ=     1.8246   ZZ=    28.0155
   Eigenvalues:    27.7746    31.6564    39.2889
     21  H    Isotropic =    32.4332   Anisotropy =    14.6747
   XX=    34.2030   YX=    -3.7491   ZX=     4.9670
   XY=    -3.6730   YY=    27.3363   ZY=    -4.1110
   XZ=     5.0882   YZ=    -4.4164   ZZ=    35.7603
   Eigenvalues:    25.1888    29.8944    42.2163
     22  H    Isotropic =    32.8313   Anisotropy =     9.1658
   XX=    32.7561   YX=     1.8675   ZX=     1.1986
   XY=     1.5266   YY=    31.9979   ZY=     5.7033
   XZ=     0.8504   YZ=     5.1540   ZZ=    33.7399
   Eigenvalues:    27.2944    32.2576    38.9419
     23  H    Isotropic =    31.9998   Anisotropy =    13.5709
   XX=    31.5393   YX=     1.3977   ZX=    -4.9054
   XY=     1.1305   YY=    30.5328   ZY=    -6.2572
   XZ=    -5.0095   YZ=    -6.1241   ZZ=    33.9274
   Eigenvalues:    24.9967    29.9557    41.0471
     24  H    Isotropic =    35.0717   Anisotropy =    18.5773
   XX=    36.0064   YX=    -6.7634   ZX=    -3.0835
   XY=    -5.0260   YY=    42.2823   ZY=     4.7487
   XZ=    -3.6208   YZ=     4.7344   ZZ=    26.9264
   Eigenvalues:    25.2689    32.4896    47.4566
     25  H    Isotropic =    32.5615   Anisotropy =    11.9572
   XX=    31.8345   YX=     3.2910   ZX=    -2.7866
   XY=     3.1454   YY=    30.4896   ZY=    -5.5760
   XZ=    -2.4440   YZ=    -4.9515   ZZ=    35.3605
   Eigenvalues:    26.6854    30.4662    40.5330
     26  H    Isotropic =    32.9411   Anisotropy =     8.5400
   XX=    30.3095   YX=     1.8810   ZX=    -1.3140
   XY=     1.7697   YY=    30.0844   ZY=     0.2684
   XZ=    -1.2948   YZ=     0.1630   ZZ=    38.4294
   Eigenvalues:    28.2577    31.9312    38.6344
     27  H    Isotropic =    32.6949   Anisotropy =     9.8440
   XX=    35.9057   YX=    -3.5875   ZX=     2.7284
   XY=    -3.7927   YY=    35.0390   ZY=     1.3783
   XZ=     2.3995   YZ=     1.7496   ZZ=    27.1398
   Eigenvalues:    25.7167    33.1103    39.2575
     28  H    Isotropic =    32.5803   Anisotropy =    14.7751
   XX=    33.3716   YX=     6.0444   ZX=     1.8535
   XY=     5.8511   YY=    36.5430   ZY=     3.9704
   XZ=     1.9937   YZ=     4.1130   ZZ=    27.8264
   Eigenvalues:    26.2035    29.1071    42.4304
     29  H    Isotropic =    32.6391   Anisotropy =     9.7787
   XX=    32.5343   YX=    -1.2460   ZX=     2.1179
   XY=    -1.1865   YY=    30.9376   ZY=    -5.2695
   XZ=     2.0611   YZ=    -5.3506   ZZ=    34.4456
   Eigenvalues:    27.0878    31.6713    39.1583
     30  H    Isotropic =    32.6591   Anisotropy =    13.0362
   XX=    35.1596   YX=    -4.9571   ZX=    -3.1364
   XY=    -4.8400   YY=    32.1407   ZY=     4.9561
   XZ=    -2.8061   YZ=     4.3858   ZZ=    30.6770
   Eigenvalues:    26.5193    30.1080    41.3499
     31  H    Isotropic =    32.4875   Anisotropy =    14.3535
   XX=    39.7788   YX=     4.2656   ZX=     2.4957
   XY=     4.1161   YY=    30.7305   ZY=     1.3737
   XZ=     2.9004   YZ=     1.8202   ZZ=    26.9533
   Eigenvalues:    26.2343    29.1717    42.0565
 End of Minotr Frequency-dependent properties file   721 does not exist.
 End of Minotr Frequency-dependent properties file   722 does not exist.

 **********************************************************************

            Population analysis using the SCF density.

 **********************************************************************

 Orbital symmetries:
       Occupied  (A) (A) (A) (A) (A) (A) (A) (A) (A) (A) (A) (A)
                 (A) (A) (A) (A) (A) (A) (A) (A) (A) (A) (A) (A)
                 (A) (A) (A) (A) (A) (A) (A) (A) (A) (A) (A) (A)
                 (A) (A) (A) (A) (A) (A) (A) (A)
       Virtual   (A) (A) (A) (A) (A) (A) (A) (A) (A) (A) (A) (A)
                 (A) (A) (A) (A) (A) (A) (A) (A) (A) (A) (A) (A)
                 (A) (A) (A) (A) (A) (A) (A)
 The electronic state is 1-A.
 Alpha  occ. eigenvalues --  -20.23446 -11.08513 -11.05000 -11.04332 -11.03966
 Alpha  occ. eigenvalues --  -11.03500 -11.03345 -11.03320 -11.03317 -11.03110
 Alpha  occ. eigenvalues --  -11.02694  -1.27538  -1.07798  -1.03638  -0.96987
 Alpha  occ. eigenvalues --   -0.94568  -0.89520  -0.87824  -0.79076  -0.78314
 Alpha  occ. eigenvalues --   -0.73811  -0.68868  -0.62293  -0.60590  -0.58510
 Alpha  occ. eigenvalues --   -0.58305  -0.55995  -0.55071  -0.53721  -0.51954
 Alpha  occ. eigenvalues --   -0.51035  -0.49886  -0.48676  -0.48064  -0.46910
 Alpha  occ. eigenvalues --   -0.45798  -0.44658  -0.42874  -0.42249  -0.40581
 Alpha  occ. eigenvalues --   -0.39205  -0.38609  -0.36293  -0.33031
 Alpha virt. eigenvalues --    0.52995   0.56334   0.56743   0.59454   0.60597
 Alpha virt. eigenvalues --    0.61708   0.62765   0.63881   0.64362   0.66018
 Alpha virt. eigenvalues --    0.69293   0.70031   0.70780   0.71460   0.72153
 Alpha virt. eigenvalues --    0.73147   0.74220   0.74373   0.74782   0.75744
 Alpha virt. eigenvalues --    0.76760   0.78094   0.79457   0.80014   0.80862
 Alpha virt. eigenvalues --    0.81624   0.83069   0.83319   0.84151   0.85680
 Alpha virt. eigenvalues --    0.86258
          Condensed to atoms (all electrons):
              1          2          3          4          5          6
     1  C    4.740255   0.365917   0.000708   0.000739   0.000004  -0.024545
     2  C    0.365917   4.741711  -0.020570  -0.021915  -0.003714   0.364598
     3  C    0.000708  -0.020570   4.741303  -0.021275   0.355666  -0.004122
     4  C    0.000739  -0.021915  -0.021275   4.756500   0.359169   0.363373
     5  C    0.000004  -0.003714   0.355666   0.359169   4.793096  -0.019502
     6  C   -0.024545   0.364598  -0.004122   0.363373  -0.019502   4.755502
     7  C   -0.024257   0.362885   0.360464  -0.004545  -0.020411  -0.023795
     8  O    0.000000  -0.000624   0.265000  -0.000132  -0.019348   0.000047
     9  C    0.000000   0.000026  -0.017450  -0.021034   0.356704  -0.000037
    10  C    0.000001   0.000042  -0.001669  -0.000163  -0.018990  -0.000529
    11  C    0.000000   0.000000  -0.001045   0.000675  -0.023219  -0.000004
    12  H    0.382324  -0.020236   0.000012  -0.000018   0.000000   0.001302
    13  H    0.382436  -0.020214  -0.000017   0.000013   0.000000  -0.002243
    14  H    0.381936  -0.020757   0.000007   0.000008   0.000001  -0.002250
    15  H   -0.024063   0.382782  -0.001585  -0.001688   0.000072  -0.023929
    16  H   -0.000014   0.001165   0.376190   0.001089  -0.024779   0.000013
    17  H   -0.000016   0.001244   0.001065   0.382282  -0.020928  -0.021961
    18  H    0.000004  -0.001694  -0.000408   0.381877  -0.022749  -0.024403
    19  H    0.000001   0.000014  -0.023854  -0.026203   0.379634   0.001270
    20  H   -0.002689  -0.022430   0.000073  -0.022854  -0.000843   0.381569
    21  H   -0.002010  -0.021515   0.000014  -0.021892   0.001155   0.382413
    22  H   -0.002776  -0.022348  -0.020487   0.000077  -0.000560  -0.001660
    23  H   -0.002042  -0.021970  -0.021560   0.000021   0.001093   0.001274
    24  H    0.000000   0.000021  -0.040611   0.000012  -0.002817  -0.000005
    25  H    0.000000  -0.000001   0.000992  -0.004100  -0.023065   0.000051
    26  H    0.000001   0.000002  -0.000066  -0.000001  -0.001191   0.000028
    27  H    0.000002  -0.000012   0.000012   0.000121  -0.001481  -0.001089
    28  H    0.000000   0.000000   0.000008  -0.000008   0.001080   0.000008
    29  H    0.000000   0.000000  -0.000519  -0.000002  -0.001452   0.000000
    30  H    0.000000   0.000000   0.000049   0.000028  -0.002649   0.000000
    31  H    0.000000   0.000000   0.000005  -0.000015   0.001182   0.000000
              7          8          9         10         11         12
     1  C   -0.024257   0.000000   0.000000   0.000001   0.000000   0.382324
     2  C    0.362885  -0.000624   0.000026   0.000042   0.000000  -0.020236
     3  C    0.360464   0.265000  -0.017450  -0.001669  -0.001045   0.000012
     4  C   -0.004545  -0.000132  -0.021034  -0.000163   0.000675  -0.000018
     5  C   -0.020411  -0.019348   0.356704  -0.018990  -0.023219   0.000000
     6  C   -0.023795   0.000047  -0.000037  -0.000529  -0.000004   0.001302
     7  C    4.760975  -0.019665   0.000082  -0.000895   0.000011  -0.002216
     8  O   -0.019665   7.852926   0.000227   0.000000   0.000002   0.000000
     9  C    0.000082   0.000227   4.743015   0.364346   0.363443   0.000000
    10  C   -0.000895   0.000000   0.364346   4.744126  -0.027337   0.000000
    11  C    0.000011   0.000002   0.363443  -0.027337   4.748456   0.000000
    12  H   -0.002216   0.000000   0.000000   0.000000   0.000000   0.630337
    13  H    0.001284   0.000000   0.000000   0.000000   0.000000  -0.021594
    14  H   -0.002227   0.000000   0.000000  -0.000001   0.000000  -0.021792
    15  H   -0.023507   0.000294   0.000000  -0.000002   0.000000  -0.002289
    16  H   -0.023999  -0.018967  -0.002402  -0.000106  -0.000531  -0.000001
    17  H    0.000014  -0.000005  -0.004093   0.000068   0.000039   0.000000
    18  H    0.000044   0.000130   0.001228  -0.000012  -0.000018   0.000000
    19  H    0.001107  -0.002834  -0.024768   0.001169  -0.005033   0.000000
    20  H   -0.001627  -0.000001   0.000128  -0.001112  -0.000002   0.000017
    21  H    0.001272  -0.000001  -0.000010   0.000009   0.000000   0.000012
    22  H    0.381933   0.000599  -0.000039  -0.001494   0.000007  -0.000020
    23  H    0.381412  -0.001139  -0.000006   0.000013   0.000000   0.000256
    24  H    0.002645   0.256927   0.000001   0.000001   0.000011   0.000000
    25  H   -0.000018  -0.000005   0.381975  -0.024936  -0.024732   0.000000
    26  H   -0.001042   0.000000  -0.020709   0.382827  -0.002715   0.000000
    27  H   -0.000277   0.000000  -0.019856   0.383555   0.001381   0.000000
    28  H    0.000020   0.000000  -0.019989   0.381910  -0.002566   0.000000
    29  H    0.000007  -0.000004  -0.020221  -0.002324   0.381963   0.000000
    30  H   -0.000001  -0.000001  -0.020076   0.001340   0.382178   0.000000
    31  H    0.000000   0.000000  -0.019643  -0.002400   0.382457   0.000000
             13         14         15         16         17         18
     1  C    0.382436   0.381936  -0.024063  -0.000014  -0.000016   0.000004
     2  C   -0.020214  -0.020757   0.382782   0.001165   0.001244  -0.001694
     3  C   -0.000017   0.000007  -0.001585   0.376190   0.001065  -0.000408
     4  C    0.000013   0.000008  -0.001688   0.001089   0.382282   0.381877
     5  C    0.000000   0.000001   0.000072  -0.024779  -0.020928  -0.022749
     6  C   -0.002243  -0.002250  -0.023929   0.000013  -0.021961  -0.024403
     7  C    0.001284  -0.002227  -0.023507  -0.023999   0.000014   0.000044
     8  O    0.000000   0.000000   0.000294  -0.018967  -0.000005   0.000130
     9  C    0.000000   0.000000   0.000000  -0.002402  -0.004093   0.001228
    10  C    0.000000  -0.000001  -0.000002  -0.000106   0.000068  -0.000012
    11  C    0.000000   0.000000   0.000000  -0.000531   0.000039  -0.000018
    12  H   -0.021594  -0.021792  -0.002289  -0.000001   0.000000   0.000000
    13  H    0.630751  -0.021796  -0.002286   0.000000  -0.000001   0.000002
    14  H   -0.021796   0.633454   0.001882   0.000000   0.000000  -0.000001
    15  H   -0.002286   0.001882   0.638860   0.000003   0.000003   0.000300
    16  H    0.000000   0.000000   0.000003   0.659467  -0.000029  -0.000007
    17  H   -0.000001   0.000000   0.000003  -0.000029   0.642015  -0.023697
    18  H    0.000002  -0.000001   0.000300  -0.000007  -0.023697   0.645259
    19  H    0.000000   0.000000  -0.000015  -0.000503  -0.000580  -0.006022
    20  H   -0.000014   0.000370   0.001899  -0.000009  -0.002990   0.002055
    21  H    0.000244  -0.000002  -0.002807   0.000002  -0.001637  -0.003709
    22  H    0.000019   0.000392   0.001892  -0.002524  -0.000008   0.000003
    23  H    0.000013  -0.000009  -0.002837  -0.001741   0.000002  -0.000006
    24  H    0.000000   0.000000  -0.000036  -0.004006  -0.000003   0.000014
    25  H    0.000000   0.000000   0.000000   0.000011   0.000142   0.000062
    26  H    0.000000   0.000000   0.000000  -0.000092   0.000001  -0.000001
    27  H    0.000000   0.000002  -0.000001   0.000021   0.000047  -0.000005
    28  H    0.000000   0.000000   0.000000  -0.000009  -0.000009   0.000001
    29  H    0.000000   0.000000   0.000000  -0.000310   0.000000   0.000000
    30  H    0.000000   0.000000   0.000000   0.000029   0.000006  -0.000001
    31  H    0.000000   0.000000   0.000000  -0.000008  -0.000002   0.000000
             19         20         21         22         23         24
     1  C    0.000001  -0.002689  -0.002010  -0.002776  -0.002042   0.000000
     2  C    0.000014  -0.022430  -0.021515  -0.022348  -0.021970   0.000021
     3  C   -0.023854   0.000073   0.000014  -0.020487  -0.021560  -0.040611
     4  C   -0.026203  -0.022854  -0.021892   0.000077   0.000021   0.000012
     5  C    0.379634  -0.000843   0.001155  -0.000560   0.001093  -0.002817
     6  C    0.001270   0.381569   0.382413  -0.001660   0.001274  -0.000005
     7  C    0.001107  -0.001627   0.001272   0.381933   0.381412   0.002645
     8  O   -0.002834  -0.000001  -0.000001   0.000599  -0.001139   0.256927
     9  C   -0.024768   0.000128  -0.000010  -0.000039  -0.000006   0.000001
    10  C    0.001169  -0.001112   0.000009  -0.001494   0.000013   0.000001
    11  C   -0.005033  -0.000002   0.000000   0.000007   0.000000   0.000011
    12  H    0.000000   0.000017   0.000012  -0.000020   0.000256   0.000000
    13  H    0.000000  -0.000014   0.000244   0.000019   0.000013   0.000000
    14  H    0.000000   0.000370  -0.000002   0.000392  -0.000009   0.000000
    15  H   -0.000015   0.001899  -0.002807   0.001892  -0.002837  -0.000036
    16  H   -0.000503  -0.000009   0.000002  -0.002524  -0.001741  -0.004006
    17  H   -0.000580  -0.002990  -0.001637  -0.000008   0.000002  -0.000003
    18  H   -0.006022   0.002055  -0.003709   0.000003  -0.000006   0.000014
    19  H    0.664558  -0.000013  -0.000033   0.000000  -0.000035   0.000639
    20  H   -0.000013   0.647685  -0.024275   0.000277   0.000002   0.000000
    21  H   -0.000033  -0.024275   0.643324   0.000002  -0.000034   0.000000
    22  H    0.000000   0.000277   0.000002   0.636549  -0.022818  -0.000080
    23  H   -0.000035   0.000002  -0.000034  -0.022818   0.630765   0.000079
    24  H    0.000639   0.000000   0.000000  -0.000080   0.000079   0.613590
    25  H   -0.001151   0.000038  -0.000006  -0.000002   0.000001  -0.000001
    26  H    0.000000   0.000008   0.000000  -0.000798   0.000028   0.000000
    27  H    0.000004  -0.000665   0.000016  -0.000366   0.000005   0.000000
    28  H   -0.000032   0.000019   0.000000   0.000030   0.000000   0.000000
    29  H    0.000019   0.000000   0.000000   0.000002   0.000000   0.000004
    30  H    0.000018   0.000000   0.000000   0.000000   0.000000  -0.000001
    31  H    0.000076   0.000000   0.000000   0.000000   0.000000   0.000000
             25         26         27         28         29         30
     1  C    0.000000   0.000001   0.000002   0.000000   0.000000   0.000000
     2  C   -0.000001   0.000002  -0.000012   0.000000   0.000000   0.000000
     3  C    0.000992  -0.000066   0.000012   0.000008  -0.000519   0.000049
     4  C   -0.004100  -0.000001   0.000121  -0.000008  -0.000002   0.000028
     5  C   -0.023065  -0.001191  -0.001481   0.001080  -0.001452  -0.002649
     6  C    0.000051   0.000028  -0.001089   0.000008   0.000000   0.000000
     7  C   -0.000018  -0.001042  -0.000277   0.000020   0.000007  -0.000001
     8  O   -0.000005   0.000000   0.000000   0.000000  -0.000004  -0.000001
     9  C    0.381975  -0.020709  -0.019856  -0.019989  -0.020221  -0.020076
    10  C   -0.024936   0.382827   0.383555   0.381910  -0.002324   0.001340
    11  C   -0.024732  -0.002715   0.001381  -0.002566   0.381963   0.382178
    12  H    0.000000   0.000000   0.000000   0.000000   0.000000   0.000000
    13  H    0.000000   0.000000   0.000000   0.000000   0.000000   0.000000
    14  H    0.000000   0.000000   0.000002   0.000000   0.000000   0.000000
    15  H    0.000000   0.000000  -0.000001   0.000000   0.000000   0.000000
    16  H    0.000011  -0.000092   0.000021  -0.000009  -0.000310   0.000029
    17  H    0.000142   0.000001   0.000047  -0.000009   0.000000   0.000006
    18  H    0.000062  -0.000001  -0.000005   0.000001   0.000000  -0.000001
    19  H   -0.001151   0.000000   0.000004  -0.000032   0.000019   0.000018
    20  H    0.000038   0.000008  -0.000665   0.000019   0.000000   0.000000
    21  H   -0.000006   0.000000   0.000016   0.000000   0.000000   0.000000
    22  H   -0.000002  -0.000798  -0.000366   0.000030   0.000002   0.000000
    23  H    0.000001   0.000028   0.000005   0.000000   0.000000   0.000000
    24  H   -0.000001   0.000000   0.000000   0.000000   0.000004  -0.000001
    25  H    0.651333   0.001951  -0.001874  -0.003037   0.001916  -0.002211
    26  H    0.001951   0.631079  -0.021451  -0.022226   0.000356   0.000019
    27  H   -0.001874  -0.021451   0.627592  -0.022265   0.000011  -0.000038
    28  H   -0.003037  -0.022226  -0.022265   0.631897  -0.000007   0.000034
    29  H    0.001916   0.000356   0.000011  -0.000007   0.633080  -0.021890
    30  H   -0.002211   0.000019  -0.000038   0.000034  -0.021890   0.634054
    31  H   -0.002653  -0.000024   0.000031   0.000033  -0.021876  -0.021871
             31
     1  C    0.000000
     2  C    0.000000
     3  C    0.000005
     4  C   -0.000015
     5  C    0.001182
     6  C    0.000000
     7  C    0.000000
     8  O    0.000000
     9  C   -0.019643
    10  C   -0.002400
    11  C    0.382457
    12  H    0.000000
    13  H    0.000000
    14  H    0.000000
    15  H    0.000000
    16  H   -0.000008
    17  H   -0.000002
    18  H    0.000000
    19  H    0.000076
    20  H    0.000000
    21  H    0.000000
    22  H    0.000000
    23  H    0.000000
    24  H    0.000000
    25  H   -0.002653
    26  H   -0.000024
    27  H    0.000031
    28  H    0.000033
    29  H   -0.021876
    30  H   -0.021871
    31  H    0.630300
 Mulliken atomic charges:
              1
     1  C   -0.171917
     2  C   -0.022406
     3  C    0.073668
     4  C   -0.100139
     5  C   -0.041157
     6  C   -0.101374
     7  C   -0.105673
     8  O   -0.313427
     9  C   -0.020843
    10  C   -0.177436
    11  C   -0.173417
    12  H    0.053903
    13  H    0.053403
    14  H    0.050783
    15  H    0.057057
    16  H    0.042047
    17  H    0.049032
    18  H    0.051756
    19  H    0.042570
    20  H    0.045383
    21  H    0.049467
    22  H    0.054197
    23  H    0.059233
    24  H    0.173616
    25  H    0.049319
    26  H    0.054020
    27  H    0.056581
    28  H    0.055110
    29  H    0.051248
    30  H    0.050985
    31  H    0.054409
 Sum of Mulliken atomic charges =   0.00000
 Mulliken charges with hydrogens summed into heavy atoms:
              1
     1  C   -0.013828
     2  C    0.034651
     3  C    0.115715
     4  C    0.000649
     5  C    0.001414
     6  C   -0.006523
     7  C    0.007757
     8  O   -0.139811
     9  C    0.028476
    10  C   -0.011724
    11  C   -0.016776
 Sum of Mulliken charges with hydrogens summed into heavy atoms =   0.00000
 Electronic spatial extent (au):  <R**2>=           1995.1414
 Charge=              0.0000 electrons
 Dipole moment (field-independent basis, Debye):
    X=             -1.2766    Y=             -0.4790    Z=              0.0442  Tot=              1.3642
 Quadrupole moment (field-independent basis, Debye-Ang):
   XX=            -67.8294   YY=            -68.5125   ZZ=            -67.1921
   XY=             -2.9658   XZ=             -0.1301   YZ=              0.4111
 Traceless Quadrupole moment (field-independent basis, Debye-Ang):
   XX=              0.0152   YY=             -0.6678   ZZ=              0.6526
   XY=             -2.9658   XZ=             -0.1301   YZ=              0.4111
 Octapole moment (field-independent basis, Debye-Ang**2):
  XXX=              1.4712  YYY=             13.7486  ZZZ=             -0.2808  XYY=            -10.6012
  XXY=              4.9751  XXZ=              1.8522  XZZ=              0.7189  YZZ=              5.7963
  YYZ=              2.4871  XYZ=             -1.1589
 Hexadecapole moment (field-independent basis, Debye-Ang**3):
 XXXX=          -1573.2667 YYYY=           -551.4956 ZZZZ=           -412.2691 XXXY=             17.5076
 XXXZ=              3.5793 YYYX=            -22.0541 YYYZ=              8.9882 ZZZX=              0.0161
 ZZZY=             -2.6022 XXYY=           -348.8129 XXZZ=           -324.6582 YYZZ=           -160.6379
 XXYZ=             -1.7997 YYXZ=             -2.2515 ZZXY=              1.3426
 N-N= 7.003629442384D+02 E-N=-2.472772351134D+03  KE= 4.555539121552D+02
 ******************************Gaussian NBO Version 3.1******************************
             N A T U R A L   A T O M I C   O R B I T A L   A N D
          N A T U R A L   B O N D   O R B I T A L   A N A L Y S I S
 ******************************Gaussian NBO Version 3.1******************************
       /RESON  / : Allow strongly delocalized NBO set
       /NLMO   / : Form Natural Localized Molecular Orbitals
       /NMR /    : Analyze NMR Sheilding Tensor 

 Analyzing the SCF density

 Job title: comment                                                         

 Storage needed:     19864 in NPA,     23691 in NBO,     45933 in NLMO (  33549317 available)


 NATURAL POPULATIONS:  Natural atomic orbital occupancies 
                                                          
   NAO  Atom  No  lang   Type(AO)    Occupancy      Energy
 ----------------------------------------------------------
     1    C    1  S      Cor( 1S)     1.99997     -10.96049
     2    C    1  S      Val( 2S)     1.07971      -0.17703
     3    C    1  px     Val( 2p)     1.00693       0.08977
     4    C    1  py     Val( 2p)     1.01791       0.09085
     5    C    1  pz     Val( 2p)     1.02222       0.08946

     6    C    2  S      Cor( 1S)     1.99997     -10.98193
     7    C    2  S      Val( 2S)     1.07806      -0.18357
     8    C    2  px     Val( 2p)     0.95654       0.11601
     9    C    2  py     Val( 2p)     0.98550       0.11054
    10    C    2  pz     Val( 2p)     0.96516       0.11466

    11    C    3  S      Cor( 1S)     1.99988     -11.03424
    12    C    3  S      Val( 2S)     1.08931      -0.21720
    13    C    3  px     Val( 2p)     0.96220       0.09259
    14    C    3  py     Val( 2p)     0.85310       0.11092
    15    C    3  pz     Val( 2p)     0.95243       0.09845

    16    C    4  S      Cor( 1S)     1.99996     -10.97189
    17    C    4  S      Val( 2S)     1.08523      -0.18662
    18    C    4  px     Val( 2p)     0.98142       0.10400
    19    C    4  py     Val( 2p)     1.00807       0.09729
    20    C    4  pz     Val( 2p)     0.98819       0.09654

    21    C    5  S      Cor( 1S)     1.99995     -10.98903
    22    C    5  S      Val( 2S)     1.10484      -0.21400
    23    C    5  px     Val( 2p)     0.96598       0.10428
    24    C    5  py     Val( 2p)     0.97979       0.09599
    25    C    5  pz     Val( 2p)     0.96957       0.10251

    26    C    6  S      Cor( 1S)     1.99996     -10.96848
    27    C    6  S      Val( 2S)     1.08099      -0.17988
    28    C    6  px     Val( 2p)     0.99025       0.10008
    29    C    6  py     Val( 2p)     0.99310       0.10446
    30    C    6  pz     Val( 2p)     1.00048       0.09804

    31    C    7  S      Cor( 1S)     1.99995     -10.97325
    32    C    7  S      Val( 2S)     1.08905      -0.19115
    33    C    7  px     Val( 2p)     0.98327       0.09564
    34    C    7  py     Val( 2p)     1.01321       0.09408
    35    C    7  pz     Val( 2p)     0.99630       0.09306

    36    O    8  S      Cor( 1S)     1.99999     -20.13908
    37    O    8  S      Val( 2S)     1.75293      -0.99898
    38    O    8  px     Val( 2p)     1.46828      -0.17686
    39    O    8  py     Val( 2p)     1.26599      -0.07492
    40    O    8  pz     Val( 2p)     1.84758      -0.31557

    41    C    9  S      Cor( 1S)     1.99996     -10.99407
    42    C    9  S      Val( 2S)     1.08582      -0.19986
    43    C    9  px     Val( 2p)     0.95412       0.10354
    44    C    9  py     Val( 2p)     0.95919       0.10903
    45    C    9  pz     Val( 2p)     0.98051       0.10397

    46    C   10  S      Cor( 1S)     1.99997     -10.96649
    47    C   10  S      Val( 2S)     1.07911      -0.18235
    48    C   10  px     Val( 2p)     1.03119       0.07942
    49    C   10  py     Val( 2p)     1.01293       0.08257
    50    C   10  pz     Val( 2p)     1.01089       0.08481

    51    C   11  S      Cor( 1S)     1.99997     -10.96715
    52    C   11  S      Val( 2S)     1.08259      -0.18667
    53    C   11  px     Val( 2p)     1.00272       0.08232
    54    C   11  py     Val( 2p)     1.02029       0.08157
    55    C   11  pz     Val( 2p)     1.02297       0.08343

    56    H   12  S      Val( 1S)     0.96341       0.07919

    57    H   13  S      Val( 1S)     0.96380       0.07842

    58    H   14  S      Val( 1S)     0.96635       0.07633

    59    H   15  S      Val( 1S)     0.96795       0.08118

    60    H   16  S      Val( 1S)     0.99382       0.04934

    61    H   17  S      Val( 1S)     0.97184       0.07204

    62    H   18  S      Val( 1S)     0.96955       0.07644

    63    H   19  S      Val( 1S)     0.98163       0.05815

    64    H   20  S      Val( 1S)     0.97535       0.07698

    65    H   21  S      Val( 1S)     0.97061       0.07473

    66    H   22  S      Val( 1S)     0.96677       0.07400

    67    H   23  S      Val( 1S)     0.96164       0.07895

    68    H   24  S      Val( 1S)     0.81417       0.07502

    69    H   25  S      Val( 1S)     0.97607       0.06468

    70    H   26  S      Val( 1S)     0.96296       0.07358

    71    H   27  S      Val( 1S)     0.96124       0.07970

    72    H   28  S      Val( 1S)     0.96157       0.07276

    73    H   29  S      Val( 1S)     0.96632       0.07056

    74    H   30  S      Val( 1S)     0.96644       0.07019

    75    H   31  S      Val( 1S)     0.96306       0.07199


 Summary of Natural Population Analysis:                  
                                                          
                                       Natural Population 
                Natural  -----------------------------------------------
    Atom  No    Charge         Core      Valence    Rydberg      Total
 -----------------------------------------------------------------------
      C    1   -0.12674      1.99997     4.12676    0.00000     6.12674
      C    2    0.01477      1.99997     3.98526    0.00000     5.98523
      C    3    0.14308      1.99988     3.85703    0.00000     5.85692
      C    4   -0.06287      1.99996     4.06291    0.00000     6.06287
      C    5   -0.02013      1.99995     4.02018    0.00000     6.02013
      C    6   -0.06479      1.99996     4.06482    0.00000     6.06479
      C    7   -0.08179      1.99995     4.08183    0.00000     6.08179
      O    8   -0.33477      1.99999     6.33478    0.00000     8.33477
      C    9    0.02040      1.99996     3.97964    0.00000     5.97960
      C   10   -0.13409      1.99997     4.13412    0.00000     6.13409
      C   11   -0.12854      1.99997     4.12857    0.00000     6.12854
      H   12    0.03659      0.00000     0.96341    0.00000     0.96341
      H   13    0.03620      0.00000     0.96380    0.00000     0.96380
      H   14    0.03365      0.00000     0.96635    0.00000     0.96635
      H   15    0.03205      0.00000     0.96795    0.00000     0.96795
      H   16    0.00618      0.00000     0.99382    0.00000     0.99382
      H   17    0.02816      0.00000     0.97184    0.00000     0.97184
      H   18    0.03045      0.00000     0.96955    0.00000     0.96955
      H   19    0.01837      0.00000     0.98163    0.00000     0.98163
      H   20    0.02465      0.00000     0.97535    0.00000     0.97535
      H   21    0.02939      0.00000     0.97061    0.00000     0.97061
      H   22    0.03323      0.00000     0.96677    0.00000     0.96677
      H   23    0.03836      0.00000     0.96164    0.00000     0.96164
      H   24    0.18583      0.00000     0.81417    0.00000     0.81417
      H   25    0.02393      0.00000     0.97607    0.00000     0.97607
      H   26    0.03704      0.00000     0.96296    0.00000     0.96296
      H   27    0.03876      0.00000     0.96124    0.00000     0.96124
      H   28    0.03843      0.00000     0.96157    0.00000     0.96157
      H   29    0.03368      0.00000     0.96632    0.00000     0.96632
      H   30    0.03356      0.00000     0.96644    0.00000     0.96644
      H   31    0.03694      0.00000     0.96306    0.00000     0.96306
 =======================================================================
   * Total *    0.00000     21.99954    66.00046    0.00000    88.00000

                                 Natural Population      
 --------------------------------------------------------
   Core                      21.99954 ( 99.9979% of  22)
   Valence                   66.00046 (100.0007% of  66)
   Natural Minimal Basis     88.00000 (100.0000% of  88)
   Natural Rydberg Basis      0.00000 (  0.0000% of  88)
 --------------------------------------------------------

    Atom  No          Natural Electron Configuration
 ----------------------------------------------------------------------------
      C    1      [core]2S( 1.08)2p( 3.05)
      C    2      [core]2S( 1.08)2p( 2.91)
      C    3      [core]2S( 1.09)2p( 2.77)
      C    4      [core]2S( 1.09)2p( 2.98)
      C    5      [core]2S( 1.10)2p( 2.92)
      C    6      [core]2S( 1.08)2p( 2.98)
      C    7      [core]2S( 1.09)2p( 2.99)
      O    8      [core]2S( 1.75)2p( 4.58)
      C    9      [core]2S( 1.09)2p( 2.89)
      C   10      [core]2S( 1.08)2p( 3.06)
      C   11      [core]2S( 1.08)2p( 3.05)
      H   12            1S( 0.96)
      H   13            1S( 0.96)
      H   14            1S( 0.97)
      H   15            1S( 0.97)
      H   16            1S( 0.99)
      H   17            1S( 0.97)
      H   18            1S( 0.97)
      H   19            1S( 0.98)
      H   20            1S( 0.98)
      H   21            1S( 0.97)
      H   22            1S( 0.97)
      H   23            1S( 0.96)
      H   24            1S( 0.81)
      H   25            1S( 0.98)
      H   26            1S( 0.96)
      H   27            1S( 0.96)
      H   28            1S( 0.96)
      H   29            1S( 0.97)
      H   30            1S( 0.97)
      H   31            1S( 0.96)


 NATURAL BOND ORBITAL ANALYSIS:

                       Occupancies       Lewis Structure    Low   High
           Occ.    -------------------  -----------------   occ   occ
  Cycle   Thresh.   Lewis   Non-Lewis     CR  BD  3C  LP    (L)   (NL)   Dev
 =============================================================================
   1(1)    1.90    87.63712   0.36288     11  31   0   2     0      0    0.02
 -----------------------------------------------------------------------------

 Structure accepted: No low occupancy Lewis orbitals

 --------------------------------------------------------
   Core                     21.99953 ( 99.998% of  22)
   Valence Lewis            65.63759 ( 99.451% of  66)
  ==================       ============================
   Total Lewis              87.63712 ( 99.588% of  88)
  -----------------------------------------------------
   Valence non-Lewis         0.36288 (  0.412% of  88)
   Rydberg non-Lewis         0.00000 (  0.000% of  88)
  ==================       ============================
   Total non-Lewis           0.36288 (  0.412% of  88)
 --------------------------------------------------------


       (Occupancy)   Bond orbital/ Coefficients/ Hybrids
 ---------------------------------------------------------------------------------
     1. (1.98879) BD ( 1) C   1 - C   2  
                ( 50.97%)   0.7139* C   1 s( 25.77%)p 2.88( 74.23%)
                                            0.0001  0.5077 -0.6706  0.4187  0.3425
                ( 49.03%)   0.7002* C   2 s( 25.11%)p 2.98( 74.89%)
                                            0.0000  0.5011  0.6566 -0.4375 -0.3554
     2. (1.99504) BD ( 1) C   1 - H  12  
                ( 51.84%)   0.7200* C   1 s( 24.71%)p 3.05( 75.29%)
                                            0.0000  0.4971  0.4007  0.5104 -0.5761
                ( 48.16%)   0.6939* H  12 s(100.00%)
                                            1.0000
     3. (1.99498) BD ( 1) C   1 - H  13  
                ( 51.82%)   0.7199* C   1 s( 24.73%)p 3.04( 75.27%)
                                            0.0000  0.4973  0.5600 -0.2179  0.6257
                ( 48.18%)   0.6941* H  13 s(100.00%)
                                            1.0000
     4. (1.99550) BD ( 1) C   1 - H  14  
                ( 51.73%)   0.7192* C   1 s( 24.78%)p 3.03( 75.22%)
                                            0.0000  0.4978 -0.2758 -0.7189 -0.3992
                ( 48.27%)   0.6948* H  14 s(100.00%)
                                            1.0000
     5. (1.98534) BD ( 1) C   2 - C   6  
                ( 49.45%)   0.7032* C   2 s( 25.02%)p 3.00( 74.98%)
                                            0.0000  0.5002 -0.3995 -0.5003  0.5830
                ( 50.55%)   0.7110* C   6 s( 25.47%)p 2.93( 74.53%)
                                            0.0001  0.5047  0.3823  0.4956 -0.5946
     6. (1.98497) BD ( 1) C   2 - C   7  
                ( 49.29%)   0.7021* C   2 s( 25.01%)p 3.00( 74.99%)
                                            0.0000  0.5001 -0.5623  0.2300 -0.6170
                ( 50.71%)   0.7121* C   7 s( 25.19%)p 2.97( 74.81%)
                                            0.0001  0.5019  0.5405 -0.2398  0.6312
     7. (1.98493) BD ( 1) C   2 - H  15  
                ( 51.54%)   0.7179* C   2 s( 24.86%)p 3.02( 75.14%)
                                            0.0000  0.4986  0.3049  0.7109  0.3912
                ( 48.46%)   0.6961* H  15 s(100.00%)
                                            1.0000
     8. (1.98296) BD ( 1) C   3 - C   5  
                ( 49.84%)   0.7060* C   3 s( 26.09%)p 2.83( 73.91%)
                                            0.0001  0.5108 -0.3820 -0.4427  0.6302
                ( 50.16%)   0.7082* C   5 s( 25.78%)p 2.88( 74.22%)
                                            0.0000  0.5078  0.3983  0.3728 -0.6667
     9. (1.98625) BD ( 1) C   3 - C   7  
                ( 50.18%)   0.7083* C   3 s( 26.64%)p 2.75( 73.36%)
                                            0.0000  0.5161  0.6905 -0.4148 -0.2912
                ( 49.82%)   0.7059* C   7 s( 25.20%)p 2.97( 74.80%)
                                            0.0001  0.5020 -0.6910  0.3922  0.3415
    10. (1.98806) BD ( 1) C   3 - O   8  
                ( 41.04%)   0.6406* C   3 s( 21.53%)p 3.65( 78.47%)
                                           -0.0001  0.4640  0.2607  0.7798  0.3297
                ( 58.96%)   0.7679* O   8 s( 16.09%)p 5.21( 83.91%)
                                            0.0000  0.4012 -0.3480 -0.7926 -0.2996
    11. (1.98805) BD ( 1) C   3 - H  16  
                ( 50.58%)   0.7112* C   3 s( 25.74%)p 2.88( 74.26%)
                                            0.0000  0.5074 -0.5562  0.1546 -0.6398
                ( 49.42%)   0.7030* H  16 s(100.00%)
                                            1.0000
    12. (1.98490) BD ( 1) C   4 - C   5  
                ( 50.18%)   0.7084* C   4 s( 25.57%)p 2.91( 74.43%)
                                            0.0001  0.5056 -0.5478  0.2853 -0.6024
                ( 49.82%)   0.7059* C   5 s( 25.16%)p 2.98( 74.84%)
                                            0.0000  0.5016  0.5825 -0.3608  0.5282
    13. (1.99069) BD ( 1) C   4 - C   6  
                ( 50.05%)   0.7075* C   4 s( 25.55%)p 2.91( 74.45%)
                                            0.0000  0.5055  0.6675 -0.4003 -0.3724
                ( 49.95%)   0.7067* C   6 s( 25.32%)p 2.95( 74.68%)
                                            0.0000  0.5032 -0.6933  0.4052  0.3192
    14. (1.98940) BD ( 1) C   4 - H  17  
                ( 51.39%)   0.7168* C   4 s( 24.95%)p 3.01( 75.05%)
                                            0.0000  0.4995 -0.4094 -0.5472  0.5324
                ( 48.61%)   0.6972* H  17 s(100.00%)
                                            1.0000
    15. (1.99046) BD ( 1) C   4 - H  18  
                ( 51.50%)   0.7176* C   4 s( 23.94%)p 3.18( 76.06%)
                                            0.0000  0.4893  0.2945  0.6774  0.4637
                ( 48.50%)   0.6964* H  18 s(100.00%)
                                            1.0000
    16. (1.97969) BD ( 1) C   5 - C   9  
                ( 49.99%)   0.7070* C   5 s( 25.54%)p 2.92( 74.46%)
                                            0.0001  0.5054 -0.5524 -0.6005 -0.2809
                ( 50.01%)   0.7072* C   9 s( 25.62%)p 2.90( 74.38%)
                                            0.0001  0.5062  0.6243  0.5630  0.1927
    17. (1.98092) BD ( 1) C   5 - H  19  
                ( 50.73%)   0.7123* C   5 s( 23.52%)p 3.25( 76.48%)
                                            0.0000  0.4850 -0.4438  0.6085  0.4445
                ( 49.27%)   0.7019* H  19 s(100.00%)
                                            1.0000
    18. (1.98963) BD ( 1) C   6 - H  20  
                ( 51.28%)   0.7161* C   6 s( 24.69%)p 3.05( 75.31%)
                                            0.0000  0.4969 -0.2440 -0.7506 -0.3608
                ( 48.72%)   0.6980* H  20 s(100.00%)
                                            1.0000
    19. (1.98924) BD ( 1) C   6 - H  21  
                ( 51.43%)   0.7171* C   6 s( 24.51%)p 3.08( 75.49%)
                                            0.0000  0.4951  0.5600 -0.1638  0.6438
                ( 48.57%)   0.6969* H  21 s(100.00%)
                                            1.0000
    20. (1.98850) BD ( 1) C   7 - H  22  
                ( 51.65%)   0.7187* C   7 s( 24.97%)p 3.00( 75.03%)
                                            0.0000  0.4997 -0.2535 -0.6982 -0.4456
                ( 48.35%)   0.6954* H  22 s(100.00%)
                                            1.0000
    21. (1.98835) BD ( 1) C   7 - H  23  
                ( 51.86%)   0.7201* C   7 s( 24.63%)p 3.06( 75.37%)
                                            0.0000  0.4963  0.4076  0.5488 -0.5351
                ( 48.14%)   0.6939* H  23 s(100.00%)
                                            1.0000
    22. (1.98980) BD ( 1) O   8 - H  24  
                ( 59.31%)   0.7701* O   8 s( 16.70%)p 4.99( 83.30%)
                                            0.0000 -0.4087  0.7573 -0.4472 -0.2437
                ( 40.69%)   0.6379* H  24 s(100.00%)
                                           -1.0000
    23. (1.99040) BD ( 1) C   9 - C  10  
                ( 49.06%)   0.7004* C   9 s( 25.60%)p 2.91( 74.40%)
                                            0.0000  0.5059  0.2737 -0.5517 -0.6040
                ( 50.94%)   0.7137* C  10 s( 25.95%)p 2.85( 74.05%)
                                            0.0001  0.5094 -0.2187  0.5836  0.5934
    24. (1.98924) BD ( 1) C   9 - C  11  
                ( 48.86%)   0.6990* C   9 s( 24.37%)p 3.10( 75.63%)
                                            0.0000  0.4937 -0.6966  0.4294 -0.2943
                ( 51.14%)   0.7151* C  11 s( 25.75%)p 2.88( 74.25%)
                                            0.0001  0.5074  0.7150 -0.3962  0.2727
    25. (1.98383) BD ( 1) C   9 - H  25  
                ( 51.08%)   0.7147* C   9 s( 24.41%)p 3.10( 75.59%)
                                            0.0000  0.4941 -0.2237 -0.4409  0.7152
                ( 48.92%)   0.6994* H  25 s(100.00%)
                                            1.0000
    26. (1.99440) BD ( 1) C  10 - H  26  
                ( 51.89%)   0.7203* C  10 s( 24.84%)p 3.03( 75.16%)
                                            0.0000  0.4984  0.1612  0.3936 -0.7555
                ( 48.11%)   0.6936* H  26 s(100.00%)
                                            1.0000
    27. (1.99380) BD ( 1) C  10 - H  27  
                ( 51.97%)   0.7209* C  10 s( 24.98%)p 3.00( 75.02%)
                                            0.0000  0.4998  0.7062 -0.4316  0.2555
                ( 48.03%)   0.6930* H  27 s(100.00%)
                                            1.0000
    28. (1.99392) BD ( 1) C  10 - H  28  
                ( 51.91%)   0.7205* C  10 s( 24.23%)p 3.13( 75.77%)
                                            0.0000  0.4923 -0.6539 -0.5642 -0.1087
                ( 48.09%)   0.6935* H  28 s(100.00%)
                                            1.0000
    29. (1.99515) BD ( 1) C  11 - H  29  
                ( 51.74%)   0.7193* C  11 s( 24.89%)p 3.02( 75.11%)
                                            0.0000  0.4989  0.1669  0.4386 -0.7286
                ( 48.26%)   0.6947* H  29 s(100.00%)
                                            1.0000
    30. (1.99512) BD ( 1) C  11 - H  30  
                ( 51.70%)   0.7190* C  11 s( 24.68%)p 3.05( 75.32%)
                                            0.0000  0.4968 -0.2787  0.5522  0.6088
                ( 48.30%)   0.6950* H  30 s(100.00%)
                                            1.0000
    31. (1.99489) BD ( 1) C  11 - H  31  
                ( 51.85%)   0.7201* C  11 s( 24.69%)p 3.05( 75.31%)
                                            0.0000  0.4969 -0.6191 -0.5880 -0.1556
                ( 48.15%)   0.6939* H  31 s(100.00%)
                                            1.0000
    32. (1.99997) CR ( 1) C   1           s(100.00%)
                                            1.0000  0.0000  0.0001  0.0000  0.0000
    33. (1.99997) CR ( 1) C   2           s(100.00%)
                                            1.0000  0.0000  0.0001  0.0000  0.0000
    34. (1.99989) CR ( 1) C   3           s(100.00%)
                                            1.0000  0.0000  0.0001  0.0001  0.0000
    35. (1.99996) CR ( 1) C   4           s(100.00%)
                                            1.0000  0.0000  0.0000  0.0000  0.0001
    36. (1.99995) CR ( 1) C   5           s(100.00%)
                                            1.0000  0.0000  0.0000  0.0001  0.0000
    37. (1.99996) CR ( 1) C   6           s(100.00%)
                                            1.0000  0.0000  0.0000  0.0000  0.0001
    38. (1.99995) CR ( 1) C   7           s(100.00%)
                                            1.0000 -0.0001  0.0000  0.0000 -0.0001
    39. (1.99999) CR ( 1) O   8           s(100.00%)
                                            1.0000  0.0000  0.0000  0.0000  0.0000
    40. (1.99996) CR ( 1) C   9           s(100.00%)
                                            1.0000  0.0000 -0.0001  0.0000  0.0000
    41. (1.99997) CR ( 1) C  10           s(100.00%)
                                            1.0000  0.0000  0.0000 -0.0001  0.0000
    42. (1.99997) CR ( 1) C  11           s(100.00%)
                                            1.0000  0.0000 -0.0001  0.0000  0.0000
    43. (1.99372) LP ( 1) O   8           s( 67.04%)p 0.49( 32.96%)
                                            0.0000  0.8188  0.5507  0.1462  0.0700
    44. (1.97669) LP ( 2) O   8           s(  0.16%)p99.99( 99.84%)
                                            0.0000  0.0399 -0.0454  0.3878 -0.9198
    45. (0.00990) BD*( 1) C   1 - C   2  
                ( 49.03%)   0.7002* C   1 s( 25.77%)p 2.88( 74.23%)
                                           -0.0001 -0.5077  0.6706 -0.4187 -0.3425
                ( 50.97%)  -0.7139* C   2 s( 25.11%)p 2.98( 74.89%)
                                            0.0000 -0.5011 -0.6566  0.4375  0.3554
    46. (0.00516) BD*( 1) C   1 - H  12  
                ( 48.16%)   0.6939* C   1 s( 24.71%)p 3.05( 75.29%)
                                            0.0000 -0.4971 -0.4007 -0.5104  0.5761
                ( 51.84%)  -0.7200* H  12 s(100.00%)
                                           -1.0000
    47. (0.00510) BD*( 1) C   1 - H  13  
                ( 48.18%)   0.6941* C   1 s( 24.73%)p 3.04( 75.27%)
                                            0.0000 -0.4973 -0.5600  0.2179 -0.6257
                ( 51.82%)  -0.7199* H  13 s(100.00%)
                                           -1.0000
    48. (0.00604) BD*( 1) C   1 - H  14  
                ( 48.27%)   0.6948* C   1 s( 24.78%)p 3.03( 75.22%)
                                            0.0000 -0.4978  0.2758  0.7189  0.3992
                ( 51.73%)  -0.7192* H  14 s(100.00%)
                                           -1.0000
    49. (0.01579) BD*( 1) C   2 - C   6  
                ( 50.55%)   0.7110* C   2 s( 25.02%)p 3.00( 74.98%)
                                            0.0000  0.5002 -0.3995 -0.5003  0.5830
                ( 49.45%)  -0.7032* C   6 s( 25.47%)p 2.93( 74.53%)
                                            0.0001  0.5047  0.3823  0.4956 -0.5946
    50. (0.01586) BD*( 1) C   2 - C   7  
                ( 50.71%)   0.7121* C   2 s( 25.01%)p 3.00( 74.99%)
                                            0.0000  0.5001 -0.5623  0.2300 -0.6170
                ( 49.29%)  -0.7021* C   7 s( 25.19%)p 2.97( 74.81%)
                                            0.0001  0.5019  0.5405 -0.2398  0.6312
    51. (0.01180) BD*( 1) C   2 - H  15  
                ( 48.46%)   0.6961* C   2 s( 24.86%)p 3.02( 75.14%)
                                            0.0000 -0.4986 -0.3049 -0.7109 -0.3912
                ( 51.54%)  -0.7179* H  15 s(100.00%)
                                           -1.0000
    52. (0.03280) BD*( 1) C   3 - C   5  
                ( 50.16%)   0.7082* C   3 s( 26.09%)p 2.83( 73.91%)
                                            0.0001  0.5108 -0.3820 -0.4427  0.6302
                ( 49.84%)  -0.7060* C   5 s( 25.78%)p 2.88( 74.22%)
                                            0.0000  0.5078  0.3983  0.3728 -0.6667
    53. (0.02139) BD*( 1) C   3 - C   7  
                ( 49.82%)   0.7059* C   3 s( 26.64%)p 2.75( 73.36%)
                                            0.0000 -0.5161 -0.6905  0.4148  0.2912
                ( 50.18%)  -0.7083* C   7 s( 25.20%)p 2.97( 74.80%)
                                           -0.0001 -0.5020  0.6910 -0.3922 -0.3415
    54. (0.02162) BD*( 1) C   3 - O   8  
                ( 58.96%)   0.7679* C   3 s( 21.53%)p 3.65( 78.47%)
                                           -0.0001  0.4640  0.2607  0.7798  0.3297
                ( 41.04%)  -0.6406* O   8 s( 16.09%)p 5.21( 83.91%)
                                            0.0000  0.4012 -0.3480 -0.7926 -0.2996
    55. (0.02221) BD*( 1) C   3 - H  16  
                ( 49.42%)   0.7030* C   3 s( 25.74%)p 2.88( 74.26%)
                                            0.0000 -0.5074  0.5562 -0.1546  0.6398
                ( 50.58%)  -0.7112* H  16 s(100.00%)
                                           -1.0000
    56. (0.01738) BD*( 1) C   4 - C   5  
                ( 49.82%)   0.7059* C   4 s( 25.57%)p 2.91( 74.43%)
                                           -0.0001 -0.5056  0.5478 -0.2853  0.6024
                ( 50.18%)  -0.7084* C   5 s( 25.16%)p 2.98( 74.84%)
                                            0.0000 -0.5016 -0.5825  0.3608 -0.5282
    57. (0.01234) BD*( 1) C   4 - C   6  
                ( 49.95%)   0.7067* C   4 s( 25.55%)p 2.91( 74.45%)
                                            0.0000 -0.5055 -0.6675  0.4003  0.3724
                ( 50.05%)  -0.7075* C   6 s( 25.32%)p 2.95( 74.68%)
                                            0.0000 -0.5032  0.6933 -0.4052 -0.3192
    58. (0.00915) BD*( 1) C   4 - H  17  
                ( 48.61%)   0.6972* C   4 s( 24.95%)p 3.01( 75.05%)
                                            0.0000 -0.4995  0.4094  0.5472 -0.5324
                ( 51.39%)  -0.7168* H  17 s(100.00%)
                                           -1.0000
    59. (0.00815) BD*( 1) C   4 - H  18  
                ( 48.50%)   0.6964* C   4 s( 23.94%)p 3.18( 76.06%)
                                            0.0000 -0.4893 -0.2945 -0.6774 -0.4637
                ( 51.50%)  -0.7176* H  18 s(100.00%)
                                           -1.0000
    60. (0.02289) BD*( 1) C   5 - C   9  
                ( 50.01%)   0.7072* C   5 s( 25.54%)p 2.92( 74.46%)
                                            0.0001  0.5054 -0.5524 -0.6005 -0.2809
                ( 49.99%)  -0.7070* C   9 s( 25.62%)p 2.90( 74.38%)
                                            0.0001  0.5062  0.6243  0.5630  0.1927
    61. (0.01119) BD*( 1) C   5 - H  19  
                ( 49.27%)   0.7019* C   5 s( 23.52%)p 3.25( 76.48%)
                                            0.0000 -0.4850  0.4438 -0.6085 -0.4445
                ( 50.73%)  -0.7123* H  19 s(100.00%)
                                           -1.0000
    62. (0.01155) BD*( 1) C   6 - H  20  
                ( 48.72%)   0.6980* C   6 s( 24.69%)p 3.05( 75.31%)
                                            0.0000 -0.4969  0.2440  0.7506  0.3608
                ( 51.28%)  -0.7161* H  20 s(100.00%)
                                           -1.0000
    63. (0.00849) BD*( 1) C   6 - H  21  
                ( 48.57%)   0.6969* C   6 s( 24.51%)p 3.08( 75.49%)
                                            0.0000 -0.4951 -0.5600  0.1638 -0.6438
                ( 51.43%)  -0.7171* H  21 s(100.00%)
                                           -1.0000
    64. (0.01023) BD*( 1) C   7 - H  22  
                ( 48.35%)   0.6954* C   7 s( 24.97%)p 3.00( 75.03%)
                                            0.0000 -0.4997  0.2535  0.6982  0.4456
                ( 51.65%)  -0.7187* H  22 s(100.00%)
                                           -1.0000
    65. (0.00848) BD*( 1) C   7 - H  23  
                ( 48.14%)   0.6939* C   7 s( 24.63%)p 3.06( 75.37%)
                                            0.0000 -0.4963 -0.4076 -0.5488  0.5351
                ( 51.86%)  -0.7201* H  23 s(100.00%)
                                           -1.0000
    66. (0.00767) BD*( 1) O   8 - H  24  
                ( 40.69%)   0.6379* O   8 s( 16.70%)p 4.99( 83.30%)
                                            0.0000  0.4087 -0.7573  0.4472  0.2437
                ( 59.31%)  -0.7701* H  24 s(100.00%)
                                            1.0000
    67. (0.01072) BD*( 1) C   9 - C  10  
                ( 50.94%)   0.7137* C   9 s( 25.60%)p 2.91( 74.40%)
                                            0.0000  0.5059  0.2737 -0.5517 -0.6040
                ( 49.06%)  -0.7004* C  10 s( 25.95%)p 2.85( 74.05%)
                                            0.0001  0.5094 -0.2187  0.5836  0.5934
    68. (0.01028) BD*( 1) C   9 - C  11  
                ( 51.14%)   0.7151* C   9 s( 24.37%)p 3.10( 75.63%)
                                            0.0000  0.4937 -0.6966  0.4294 -0.2943
                ( 48.86%)  -0.6990* C  11 s( 25.75%)p 2.88( 74.25%)
                                            0.0001  0.5074  0.7150 -0.3962  0.2727
    69. (0.01110) BD*( 1) C   9 - H  25  
                ( 48.92%)   0.6994* C   9 s( 24.41%)p 3.10( 75.59%)
                                            0.0000 -0.4941  0.2237  0.4409 -0.7152
                ( 51.08%)  -0.7147* H  25 s(100.00%)
                                           -1.0000
    70. (0.00655) BD*( 1) C  10 - H  26  
                ( 48.11%)   0.6936* C  10 s( 24.84%)p 3.03( 75.16%)
                                            0.0000 -0.4984 -0.1612 -0.3936  0.7555
                ( 51.89%)  -0.7203* H  26 s(100.00%)
                                           -1.0000
    71. (0.00706) BD*( 1) C  10 - H  27  
                ( 48.03%)   0.6930* C  10 s( 24.98%)p 3.00( 75.02%)
                                            0.0000 -0.4998 -0.7062  0.4316 -0.2555
                ( 51.97%)  -0.7209* H  27 s(100.00%)
                                           -1.0000
    72. (0.00500) BD*( 1) C  10 - H  28  
                ( 48.09%)   0.6935* C  10 s( 24.23%)p 3.13( 75.77%)
                                            0.0000 -0.4923  0.6539  0.5642  0.1087
[...]
   21       5.4319       -0.5014       5.9333        -5.7121      11.1439
   38     200.0149       -0.0015     200.0164         0.0023     200.0126
 Sum      215.3185      -23.8724     239.1909       -27.1662     242.4847

 Contributions to Isotropic shielding for atom    8 (   347.9496 ppm):
                         Standard Origin              Atomic Origin
 NLMO      Total    Paramagnetic  Diamagnetic   Paramagnetic  Diamagnetic
   10      26.1779        8.4227      17.7552        15.5493      10.6286
   11      -0.3771       -0.6197       0.2426        -1.6809       1.3037
   17      -1.1186       -1.4313       0.3127        -2.1189       1.0004
   21      -0.2063       -0.6121       0.4058        -1.1541       0.9478
   22      17.7721        7.6817      10.0905         3.3938      14.3783
   39     271.1694       -0.0061     271.1756        -0.0037     271.1731
   43      32.6959       -1.7279      34.4238        -4.8184      37.5143
   44       1.0029      -37.4885      38.4913       -38.9849      39.9877
 Sum      347.1162      -25.7812     372.8974       -29.8178     376.9339

 Contributions to Isotropic shielding for atom    9 (   211.5534 ppm):
                         Standard Origin              Atomic Origin
 NLMO      Total    Paramagnetic  Diamagnetic   Paramagnetic  Diamagnetic
   14      -0.4886       -0.9173       0.4287        -1.4129       0.9243
   16       4.4997       -9.4093      13.9090        -3.3205       7.8202
   23       0.3997       -7.0973       7.4970        -7.1592       7.5588
   24      -2.4269       -4.6382       2.2113        -9.7952       7.3683
   25       4.3989       -1.9169       6.3157        -6.4983      10.8972
   26       0.7558       -0.2736       1.0294        -0.2752       1.0310
   27       0.5678       -0.5087       1.0765        -0.4452       1.0130
   28       0.5839       -0.0837       0.6676        -0.4377       1.0216
   29       1.0957       -0.3559       1.4517         0.0696       1.0262
   30       0.7391       -0.5183       1.2574        -0.2743       1.0134
   31       0.6400       -0.4007       1.0407        -0.3825       1.0225
   40     199.9271       -0.0020     199.9291         0.0024     199.9247
 Sum      210.6921      -26.1220     236.8141       -29.9290     240.6211

 Contributions to Isotropic shielding for atom   10 (   222.8758 ppm):
                         Standard Origin              Atomic Origin
 NLMO      Total    Paramagnetic  Diamagnetic   Paramagnetic  Diamagnetic
   23       3.1603       -8.5897      11.7500        -4.7777       7.9381
   25       0.3036       -0.1657       0.4693        -0.7066       1.0102
   26       6.7854       -4.7347      11.5202        -4.3447      11.1302
   27       6.6312       -6.0171      12.6483        -4.5322      11.1634
   28       5.7105        2.5095       3.2010        -5.3736      11.0841
   41     200.0794       -0.0016     200.0809         0.0011     200.0783
 Sum      222.6704      -16.9994     239.6698       -19.7338     242.4042

 Contributions to Isotropic shielding for atom   11 (   220.1993 ppm):
                         Standard Origin              Atomic Origin
 NLMO      Total    Paramagnetic  Diamagnetic   Paramagnetic  Diamagnetic
   17      -0.2987       -0.1940      -0.1047        -1.2636       0.9649
   23      -0.4746        0.0539      -0.5285        -1.2189       0.7443
   24       4.6961      -11.8385      16.5347        -3.3822       8.0784
   25       0.2785        0.1823       0.0962        -0.7567       1.0352
   29       6.3523       -4.9923      11.3446        -4.7627      11.1150
   30       4.6211       -2.8548       7.4759        -6.4443      11.0654
   31       4.5929        1.5607       3.0322        -6.5319      11.1248
   42     200.0753       -0.0039     200.0792         0.0023     200.0730
 Sum      219.8428      -18.0867     237.9295       -24.3580     244.2009

 Contributions to Isotropic shielding for atom   12 (    32.3742 ppm):
                         Standard Origin              Atomic Origin
 NLMO      Total    Paramagnetic  Diamagnetic   Paramagnetic  Diamagnetic
    1       1.4175       -0.4837       1.9011         0.4064       1.0111
    2      26.3402        0.1624      26.1778         0.4289      25.9113
    3       1.9021        2.3005      -0.3983         0.0608       1.8414
    4       1.9561        1.2075       0.7486         0.1219       1.8342
    6      -0.1039        0.5316      -0.6355        -1.0019       0.8980
 Sum       31.5120        3.7182      27.7938         0.0161      31.4960

 Contributions to Isotropic shielding for atom   13 (    32.3979 ppm):
                         Standard Origin              Atomic Origin
 NLMO      Total    Paramagnetic  Diamagnetic   Paramagnetic  Diamagnetic
    1       1.3661       -0.2813       1.6474         0.3545       1.0116
    2       1.9153        2.2471      -0.3318         0.0756       1.8397
    3      26.3609        0.1236      26.2373         0.4381      25.9228
    4       1.9417        1.3757       0.5660         0.1073       1.8344
    5      -0.1366        0.6346      -0.7711        -1.0275       0.8909
 Sum       31.4474        4.0996      27.3478        -0.0520      31.4994

 Contributions to Isotropic shielding for atom   14 (    32.7244 ppm):
                         Standard Origin              Atomic Origin
 NLMO      Total    Paramagnetic  Diamagnetic   Paramagnetic  Diamagnetic
    1       1.6570       -1.2643       2.9213         0.7604       0.8966
    2       1.9796        1.4619       0.5177         0.1542       1.8254
    3       1.9557        1.6876       0.2681         0.1300       1.8257
    4      26.3849        0.3204      26.0645         0.4205      25.9644
 Sum       31.9772        2.2057      29.7715         1.4651      30.5121

 Contributions to Isotropic shielding for atom   15 (    32.2473 ppm):
                         Standard Origin              Atomic Origin
 NLMO      Total    Paramagnetic  Diamagnetic   Paramagnetic  Diamagnetic
    1       0.8007        2.1931      -1.3923        -0.1494       0.9501
    2       0.2614       -0.7635       1.0248        -0.6990       0.9604
    5       1.3856        0.6218       0.7638         0.5321       0.8535
    6       1.4382        0.3196       1.1185         0.5844       0.8538
    7      26.2454       -0.0012      26.2467         0.4255      25.8199
   10       0.1332       -0.4394       0.5726        -1.2609       1.3940
   43      -0.5953        0.1103      -0.7056         0.5082      -1.1035
 Sum       29.6692        2.0406      27.6285        -0.0591      29.7282

 Contributions to Isotropic shielding for atom   16 (    31.9903 ppm):
                         Standard Origin              Atomic Origin
 NLMO      Total    Paramagnetic  Diamagnetic   Paramagnetic  Diamagnetic
    9       0.8863        0.3997       0.4866        -0.3295       1.2158
   10       0.5415        1.3448      -0.8033        -1.0503       1.5918
   11      26.7572        0.3409      26.4163         0.7406      26.0166
   22       0.2893       -0.7912       1.0805        -0.6950       0.9843
   29      -0.3185       -1.5006       1.1821        -0.8469       0.5284
 Sum       28.1558       -0.2064      28.3622        -2.1812      30.3369

 Contributions to Isotropic shielding for atom   17 (    32.4743 ppm):
                         Standard Origin              Atomic Origin
 NLMO      Total    Paramagnetic  Diamagnetic   Paramagnetic  Diamagnetic
   12       1.3396        0.5686       0.7710         0.4252       0.9143
   13       1.0682        1.0508       0.0175         0.0365       1.0317
   14      26.4798        0.0689      26.4110         0.4843      25.9955
   15       2.0567        1.7073       0.3494         0.3119       1.7448
   16      -0.1021        0.0079      -0.1100        -1.1760       1.0739
   25      -0.1933       -1.0336       0.8402        -0.9141       0.7208
 Sum       30.6489        2.3698      28.2791        -0.8321      31.4811

 Contributions to Isotropic shielding for atom   18 (    32.0396 ppm):
                         Standard Origin              Atomic Origin
 NLMO      Total    Paramagnetic  Diamagnetic   Paramagnetic  Diamagnetic
   10       0.0543       -0.3766       0.4309        -1.1366       1.1909
   12       1.3160        0.3453       0.9706         0.2597       1.0563
   13       1.1008        0.9094       0.1914         0.0464       1.0544
   14       1.9332        1.6592       0.2740         0.1321       1.8012
   15      26.4058        0.0279      26.3778         0.4440      25.9617
   17      -0.0473       -0.2698       0.2224        -1.1393       1.0920
 Sum       30.7628        2.2955      28.4672        -1.3936      32.1564

 Contributions to Isotropic shielding for atom   19 (    32.8967 ppm):
                         Standard Origin              Atomic Origin
 NLMO      Total    Paramagnetic  Diamagnetic   Paramagnetic  Diamagnetic
    8       1.3112        1.0636       0.2476         0.2803       1.0308
   10      -0.1538       -0.1294      -0.0244        -1.5278       1.3740
   12       1.1733        1.2656      -0.0923        -0.0884       1.2617
   15       0.0166       -0.5062       0.5228        -1.1292       1.1458
   16       1.0317        1.4791      -0.4474        -0.1333       1.1650
   17      26.6523       -0.1767      26.8290         0.4768      26.1755
   22      -0.0473       -1.2206       1.1733        -0.8253       0.7780
   24      -0.0988       -0.5050       0.4062        -1.1829       1.0841
   30      -0.1401       -1.6718       1.5317        -1.0521       0.9120
 Sum       29.7451       -0.4013      30.1464        -5.1820      34.9271

 Contributions to Isotropic shielding for atom   20 (    32.9066 ppm):
                         Standard Origin              Atomic Origin
 NLMO      Total    Paramagnetic  Diamagnetic   Paramagnetic  Diamagnetic
    4      -0.0516       -1.1628       1.1113        -0.9508       0.8992
    5       1.3525        0.4423       0.9102         0.5150       0.8374
   13       1.3453        0.1057       1.2396         0.4367       0.9087
   18      26.5566        0.2071      26.3494         0.4135      26.1431
   19       2.0009        1.8429       0.1580         0.2176       1.7834
 Sum       31.2037        1.4352      29.7685         0.6319      30.5718

 Contributions to Isotropic shielding for atom   21 (    32.4332 ppm):
                         Standard Origin              Atomic Origin
 NLMO      Total    Paramagnetic  Diamagnetic   Paramagnetic  Diamagnetic
    3      -0.0860       -1.3067       1.2207        -0.9711       0.8851
    5       1.0542        1.2514      -0.1973         0.1068       0.9474
   13       1.1689        1.0280       0.1410         0.1680       1.0009
   15       0.1693        0.0427       0.1266        -0.9020       1.0714
   18       2.0499        1.4259       0.6240         0.2813       1.7686
   19      26.4797       -0.0538      26.5335         0.4650      26.0147
 Sum       30.8361        2.3876      28.4485        -0.8520      31.6881

 Contributions to Isotropic shielding for atom   22 (    32.8313 ppm):
                         Standard Origin              Atomic Origin
 NLMO      Total    Paramagnetic  Diamagnetic   Paramagnetic  Diamagnetic
    4      -0.0512       -1.2671       1.2159        -0.9523       0.9011
    6       1.2451        0.6567       0.5884         0.3477       0.8974
    9       1.4442        0.2499       1.1942         0.6561       0.7881
   20      26.3373        0.2027      26.1346         0.4116      25.9257
   21       2.0312        1.5277       0.5035         0.2329       1.7983
   26      -0.3316       -1.1155       0.7839        -1.0476       0.7160
   27      -0.1163       -0.6859       0.5696        -1.0171       0.9008
 Sum       30.5587       -0.4316      30.9902        -1.3687      31.9273

 Contributions to Isotropic shielding for atom   23 (    31.9998 ppm):
                         Standard Origin              Atomic Origin
 NLMO      Total    Paramagnetic  Diamagnetic   Paramagnetic  Diamagnetic
    2      -0.0912       -1.3941       1.3029        -0.9795       0.8883
    6       1.0167        1.3438      -0.3271        -0.0203       1.0370
    9       1.1666        0.9090       0.2576         0.2403       0.9263
   10       0.0753       -0.1399       0.2152        -1.6369       1.7122
   20       2.0699        1.1906       0.8793         0.3071       1.7628
   21      26.1827        0.0250      26.1577         0.4358      25.7469
 Sum       30.4200        1.9343      28.4857        -1.6535      32.0735

 Contributions to Isotropic shielding for atom   24 (    35.0717 ppm):
                         Standard Origin              Atomic Origin
 NLMO      Total    Paramagnetic  Diamagnetic   Paramagnetic  Diamagnetic
    8      -0.0725        0.2205      -0.2930        -1.0601       0.9876
   10       1.5996        1.9443      -0.3447         0.8920       0.7076
   11       0.1530        0.3098      -0.1569        -0.9027       1.0557
   22      23.1848       -0.3994      23.5842        -0.0701      23.2549
   43       4.0039        0.9908       3.0131         2.0528       1.9511
   44       5.4543        2.3648       3.0895         2.2819       3.1724
 Sum       34.3231        5.4309      28.8922         3.1938      31.1292

 Contributions to Isotropic shielding for atom   25 (    32.5615 ppm):
                         Standard Origin              Atomic Origin
 NLMO      Total    Paramagnetic  Diamagnetic   Paramagnetic  Diamagnetic
   12      -0.1557        0.1914      -0.3470        -1.1908       1.0352
   16       1.6211        0.2865       1.3346         0.5929       1.0282
   23       1.0599        1.2959      -0.2360         0.0123       1.0476
   24       0.7891        2.2380      -1.4489        -0.2062       0.9953
   25      26.5119       -0.1149      26.6268         0.4824      26.0295
 Sum       29.8264        3.8969      25.9295        -0.3093      30.1357

 Contributions to Isotropic shielding for atom   26 (    32.9411 ppm):
                         Standard Origin              Atomic Origin
 NLMO      Total    Paramagnetic  Diamagnetic   Paramagnetic  Diamagnetic
   23       1.4002       -0.2682       1.6685         0.4762       0.9240
   24      -0.1032       -0.0762      -0.0270        -1.0235       0.9203
   26      26.3040        0.2580      26.0460         0.3825      25.9215
   27       2.1654        0.2472       1.9182         0.3800       1.7854
   28       1.9945        1.8670       0.1275         0.1381       1.8564
 Sum       31.7609        2.0278      29.7332         0.3533      31.4076

 Contributions to Isotropic shielding for atom   27 (    32.6948 ppm):
                         Standard Origin              Atomic Origin
 NLMO      Total    Paramagnetic  Diamagnetic   Paramagnetic  Diamagnetic
   23       1.4525       -0.4972       1.9496         0.4473       1.0051
   26       2.1650        0.2965       1.8684         0.3625       1.8025
   27      26.3085        0.3091      25.9994         0.3854      25.9231
   28       1.9838        1.6728       0.3110         0.1002       1.8836
 Sum       31.9097        1.7812      30.1285         1.2954      30.6143

 Contributions to Isotropic shielding for atom   28 (    32.5803 ppm):
                         Standard Origin              Atomic Origin
 NLMO      Total    Paramagnetic  Diamagnetic   Paramagnetic  Diamagnetic
   23       1.1176        1.0286       0.0890         0.1011       1.0165
   24      -0.1141        0.3682      -0.4823        -1.0943       0.9802
   26       2.0144        1.5028       0.5116         0.1416       1.8728
   27       2.0452        1.3093       0.7359         0.1614       1.8839
   28      26.3126       -0.0156      26.3282         0.4152      25.8974
   31      -0.1091       -1.1909       1.0819        -0.9929       0.8838
 Sum       31.2667        3.0024      28.2643        -1.2679      32.5346

 Contributions to Isotropic shielding for atom   29 (    32.6391 ppm):
                         Standard Origin              Atomic Origin
 NLMO      Total    Paramagnetic  Diamagnetic   Paramagnetic  Diamagnetic
    8      -0.0866        0.1402      -0.2267        -1.0273       0.9407
   24       1.6230       -1.2544       2.8774         0.6950       0.9280
   29      26.3701        0.3093      26.0608         0.4023      25.9677
   30       1.9444        1.0263       0.9180         0.1348       1.8096
   31       1.8787        1.8134       0.0653         0.0418       1.8369
 Sum       31.7296        2.0348      29.6948         0.2467      31.4829

 Contributions to Isotropic shielding for atom   30 (    32.6591 ppm):
                         Standard Origin              Atomic Origin
 NLMO      Total    Paramagnetic  Diamagnetic   Paramagnetic  Diamagnetic
   16      -0.0481        0.2710      -0.3191        -1.0026       0.9544
   24       1.5323       -0.5894       2.1217         0.5297       1.0026
   29       2.0115        0.8903       1.1212         0.1739       1.8376
   30      26.4373        0.2224      26.2148         0.4552      25.9821
   31       1.8763        2.3341      -0.4578         0.0201       1.8562
 Sum       31.8092        3.1284      28.6809         0.1763      31.6329

 Contributions to Isotropic shielding for atom   31 (    32.4875 ppm):
                         Standard Origin              Atomic Origin
 NLMO      Total    Paramagnetic  Diamagnetic   Paramagnetic  Diamagnetic
   23      -0.1661        0.6906      -0.8567        -1.1611       0.9950
   24       1.3332        0.1204       1.2128         0.3136       1.0196
   29       1.9677        1.4772       0.4905         0.1166       1.8511
   30       1.8523        2.0982      -0.2458         0.0066       1.8457
   31      26.3546        0.0479      26.3067         0.4591      25.8955
 Sum       31.3417        4.4343      26.9073        -0.2652      31.6069
 
 1\1\GINC-COMPUTE-10-6\SP\RHF\STO-3G\C10H20O1\YTSAI.IQUIR\03-Aug-2021\0
 \\# rhf/STO-3G nmr pop=nbo\\comment\\0,1\C,0,-0.953963572,0.379787281,
 -3.208275745\C,0,-1.167329454,0.04781137,-1.731687111\C,0,-0.299387989
 ,-1.337733841,0.224963307\C,0,-1.233753479,1.00989027,0.609324787\C,0,
 -0.327503447,-0.11164199,1.163054583\C,0,-1.070683462,1.312149097,-0.8
 76130285\C,0,-0.153840585,-1.003070438,-1.262235533\O,0,-1.537654346,-
 2.047019789,0.368787038\C,0,1.063666232,0.403115763,1.643868202\C,0,2.
 110668781,0.648917147,0.560149537\C,0,1.65902729,-0.552776469,2.690277
 976\H,0,-1.05405669,-0.518581272,-3.8264347\H,0,-1.695423764,1.1080615
 92,-3.553384508\H,0,0.041692191,0.80174961,-3.382578384\H,0,-2.1788570
 64,-0.366227155,-1.626945183\H,0,0.490686544,-2.038052478,0.513476335\
 H,0,-1.099848886,1.931714598,1.187652076\H,0,-2.278013257,0.708380403,
 0.771604327\H,0,-0.840919188,-0.427951602,2.084353763\H,0,-0.120122313
 ,1.822976914,-1.055832508\H,0,-1.853253919,2.019208782,-1.1791457\H,0,
 0.861288281,-0.656850121,-1.478261249\H,0,-0.303185655,-1.917868193,-1
 .850654619\H,0,-1.593413454,-2.354628047,1.289556638\H,0,0.901416198,1
 .35891276,2.160165779\H,0,2.419470537,-0.28194946,0.07539438\H,0,1.758
 234797,1.34501974,-0.201554977\H,0,3.01174015,1.092515528,0.999778718\
 H,0,1.897512315,-1.530194,2.259589846\H,0,0.962996647,-0.706756017,3.5
 21598822\H,0,2.582810563,-0.138909986,3.109524388\\Version=EM64L-G09Re
 vC.01\State=1-A\HF=-459.6142295\RMSD=8.258e-09\Dipole=0.3421306,0.1289
 02,0.3929239\Quadrupole=-0.9401877,-0.2159283,1.156116,-1.123753,-0.96
 40328,-1.3711848\PG=C01 [X(C10H20O1)]\\@


 ORIGINALITY CONSISTS NOT IN SAYING WHAT NO ONE HAS EVER SAID BEFORE, 
 BUT IN SAYING WHAT YOU THINK YOUR SELF.

                                    -- JAMES F. STEPHEN
 Job cpu time:  0 days  0 hours  0 minutes 27.5 seconds.
 File lengths (MBytes):  RWF=      5 Int=      0 D2E=      0 Chk=      1 Scr=      1
 Normal termination of Gaussian 09 at Tue Aug  3 16:36:09 2021.
