 Entering Gaussian System, Link 0=g09
 Input=/home/ytsai.iquir/menthol/03_menthol_M0010_MMFF_NMR_rhf_STO-3G_nbo.gjc
 Output=/home/ytsai.iquir/menthol/03_menthol_M0010_MMFF_NMR_rhf_STO-3G_nbo.log
 Initial command:
 /share/apps/Gaussian09/EM64T.SSE4.2-enabled/g09/l1.exe /tmp/Gau-1039.inp -scrdir=/tmp/
 Entering Link 1 = /share/apps/Gaussian09/EM64T.SSE4.2-enabled/g09/l1.exe PID=      1040.
  
 Copyright (c) 1988,1990,1992,1993,1995,1998,2003,2009,2011,
            Gaussian, Inc.  All Rights Reserved.
  
 This is part of the Gaussian(R) 09 program.  It is based on
 the Gaussian(R) 03 system (copyright 2003, Gaussian, Inc.),
 the Gaussian(R) 98 system (copyright 1998, Gaussian, Inc.),
 the Gaussian(R) 94 system (copyright 1995, Gaussian, Inc.),
 the Gaussian 92(TM) system (copyright 1992, Gaussian, Inc.),
 the Gaussian 90(TM) system (copyright 1990, Gaussian, Inc.),
 the Gaussian 88(TM) system (copyright 1988, Gaussian, Inc.),
 the Gaussian 86(TM) system (copyright 1986, Carnegie Mellon
 University), and the Gaussian 82(TM) system (copyright 1983,
 Carnegie Mellon University). Gaussian is a federally registered
 trademark of Gaussian, Inc.
  
 This software contains proprietary and confidential information,
 including trade secrets, belonging to Gaussian, Inc.
  
 This software is provided under written license and may be
 used, copied, transmitted, or stored only in accord with that
 written license.
  
 The following legend is applicable only to US Government
 contracts under FAR:
  
                    RESTRICTED RIGHTS LEGEND
  
 Use, reproduction and disclosure by the US Government is
 subject to restrictions as set forth in subparagraphs (a)
 and (c) of the Commercial Computer Software - Restricted
 Rights clause in FAR 52.227-19.
  
 Gaussian, Inc.
 340 Quinnipiac St., Bldg. 40, Wallingford CT 06492
  
  
 ---------------------------------------------------------------
 Warning -- This program may not be used in any manner that
 competes with the business of Gaussian, Inc. or will provide
 assistance to any competitor of Gaussian, Inc.  The licensee
 of this program is prohibited from giving any competitor of
 Gaussian, Inc. access to this program.  By using this program,
 the user acknowledges that Gaussian, Inc. is engaged in the
 business of creating and licensing software in the field of
 computational chemistry and represents and warrants to the
 licensee that it is not a competitor of Gaussian, Inc. and that
 it will not use this program in any manner prohibited above.
 ---------------------------------------------------------------
  

 Cite this work as:
 Gaussian 09, Revision C.01,
 M. J. Frisch, G. W. Trucks, H. B. Schlegel, G. E. Scuseria, 
 M. A. Robb, J. R. Cheeseman, G. Scalmani, V. Barone, B. Mennucci, 
 G. A. Petersson, H. Nakatsuji, M. Caricato, X. Li, H. P. Hratchian, 
 A. F. Izmaylov, J. Bloino, G. Zheng, J. L. Sonnenberg, M. Hada, 
 M. Ehara, K. Toyota, R. Fukuda, J. Hasegawa, M. Ishida, T. Nakajima, 
 Y. Honda, O. Kitao, H. Nakai, T. Vreven, J. A. Montgomery, Jr., 
 J. E. Peralta, F. Ogliaro, M. Bearpark, J. J. Heyd, E. Brothers, 
 K. N. Kudin, V. N. Staroverov, T. Keith, R. Kobayashi, J. Normand, 
 K. Raghavachari, A. Rendell, J. C. Burant, S. S. Iyengar, J. Tomasi, 
 M. Cossi, N. Rega, J. M. Millam, M. Klene, J. E. Knox, J. B. Cross, 
 V. Bakken, C. Adamo, J. Jaramillo, R. Gomperts, R. E. Stratmann, 
 O. Yazyev, A. J. Austin, R. Cammi, C. Pomelli, J. W. Ochterski, 
 R. L. Martin, K. Morokuma, V. G. Zakrzewski, G. A. Voth, 
 P. Salvador, J. J. Dannenberg, S. Dapprich, A. D. Daniels, 
 O. Farkas, J. B. Foresman, J. V. Ortiz, J. Cioslowski, 
 and D. J. Fox, Gaussian, Inc., Wallingford CT, 2010.
 
 ******************************************
 Gaussian 09:  EM64L-G09RevC.01 23-Sep-2011
                 3-Aug-2021 
 ******************************************
 %nprocshared=4
 Will use up to    4 processors via shared memory.
 ------------------------
 # rhf/STO-3G nmr pop=nbo
 ------------------------
 1/38=1/1;
 2/12=2,17=6,18=5,40=1/2;
 3/6=3,11=1,16=1,25=1,30=1,116=1/1,2,8,3;
 4//1;
 5/5=2,38=5/2;
 8/6=1,10=90,11=11/1;
 10/13=100,45=16/2;
 6/7=2,8=2,9=2,10=2,28=1,64=1/1,7;
 99/9=1/99;
 -------
 comment
 -------
 Charge =  0 Multiplicity = 1
 Symbolic Z-Matrix:
 6                    -2.08721  -1.35441  -2.2665 
 6                    -1.58935  -1.11429  -0.84196 
 6                     0.43048  -1.3021    0.70313 
 6                    -1.13322   0.65213   0.91692 
 6                     0.34039   0.20379   1.04916 
 6                    -1.71127   0.36898  -0.46905 
 6                    -0.14569  -1.61862  -0.68027 
 8                    -0.30188  -2.06004   1.67124 
 6                     1.32854   1.08472   0.21974 
 6                     2.78715   0.64598   0.4101 
 6                     1.22275   2.57215   0.58351 
 1                    -3.12815  -1.03159  -2.37347 
 1                    -1.48505  -0.80376  -2.99715 
 1                    -2.03856  -2.41851  -2.52049 
 1                    -2.23413  -1.68988  -0.1644 
 1                     1.46032  -1.66486   0.75731 
 1                    -1.25002   1.71304   1.15791 
 1                    -1.73772   0.12008   1.66349 
 1                     0.60407   0.32158   2.10991 
 1                    -1.20567   0.99122  -1.21702 
 1                    -2.76744   0.66478  -0.48267 
 1                     0.49355  -1.18045  -1.45588 
 1                    -0.13685  -2.70511  -0.83498 
 1                     0.08884  -1.87584   2.54239 
 1                     1.09864   0.99428  -0.8482 
 1                     3.05585   0.61289   1.47123 
 1                     2.97025  -0.34073  -0.02453 
 1                     3.47299   1.33903  -0.08978 
 1                     0.26122   2.99315   0.27607 
 1                     1.99654   3.15623   0.07295 
 1                     1.34062   2.72615   1.66131 
 
                          Input orientation:                          
 ---------------------------------------------------------------------
 Center     Atomic      Atomic             Coordinates (Angstroms)
 Number     Number       Type             X           Y           Z
 ---------------------------------------------------------------------
      1          6           0       -2.087207   -1.354415   -2.266501
      2          6           0       -1.589354   -1.114292   -0.841957
      3          6           0        0.430475   -1.302100    0.703126
      4          6           0       -1.133219    0.652130    0.916924
      5          6           0        0.340393    0.203794    1.049162
      6          6           0       -1.711273    0.368978   -0.469052
      7          6           0       -0.145688   -1.618618   -0.680267
      8          8           0       -0.301882   -2.060041    1.671236
      9          6           0        1.328545    1.084721    0.219736
     10          6           0        2.787155    0.645983    0.410101
     11          6           0        1.222754    2.572147    0.583509
     12          1           0       -3.128147   -1.031591   -2.373474
     13          1           0       -1.485051   -0.803761   -2.997154
     14          1           0       -2.038559   -2.418514   -2.520487
     15          1           0       -2.234128   -1.689876   -0.164402
     16          1           0        1.460315   -1.664857    0.757309
     17          1           0       -1.250017    1.713043    1.157908
     18          1           0       -1.737719    0.120085    1.663485
     19          1           0        0.604069    0.321582    2.109910
     20          1           0       -1.205667    0.991220   -1.217017
     21          1           0       -2.767435    0.664785   -0.482666
     22          1           0        0.493550   -1.180446   -1.455883
     23          1           0       -0.136850   -2.705110   -0.834982
     24          1           0        0.088836   -1.875844    2.542390
     25          1           0        1.098641    0.994283   -0.848197
     26          1           0        3.055846    0.612886    1.471229
     27          1           0        2.970249   -0.340733   -0.024530
     28          1           0        3.472991    1.339032   -0.089785
     29          1           0        0.261224    2.993152    0.276068
     30          1           0        1.996536    3.156232    0.072950
     31          1           0        1.340615    2.726146    1.661310
 ---------------------------------------------------------------------
                    Distance matrix (angstroms):
                    1          2          3          4          5
     1  C    0.000000
     2  C    1.528019   0.000000
     3  C    3.893603   2.549953   0.000000
     4  C    3.882075   2.534160   2.511944   0.000000
     5  C    4.394869   3.006261   1.547763   1.545970   0.000000
     6  C    2.518379   1.534280   2.958647   1.528153   2.557654
     7  C    2.520999   1.537745   1.531641   2.946613   2.558981
     8  O    4.380760   2.977946   1.431104   2.935299   2.434017
     9  C    4.878331   3.804863   2.595594   2.594896   1.562186
    10  C    5.909754   4.880578   3.071617   3.953003   2.567212
    11  C    5.873354   4.850746   3.956236   3.057489   2.569921
    12  H    1.095087   2.172618   4.711946   4.200164   5.027065
    13  H    1.095292   2.179950   4.196386   4.190872   4.551932
    14  H    1.095072   2.172612   4.211199   4.697264   5.027754
    15  H    2.133762   1.098231   2.828972   2.804685   3.418607
    16  H    4.671693   3.487299   1.093206   3.481425   2.198012
    17  H    4.672982   3.479718   3.481662   1.094190   2.195237
    18  H    4.212016   2.796952   2.765134   1.098111   2.168628
    19  H    5.404156   3.947956   2.155346   2.133225   1.099357
    20  H    2.716713   2.172801   3.409285   2.161928   2.854104
    21  H    2.778838   2.163812   3.937178   2.151668   3.495369
    22  H    2.710659   2.172503   2.163354   3.411000   2.866152
    23  H    2.770833   2.154186   2.157794   3.915736   3.498497
    24  H    5.304006   3.853581   1.956730   3.244412   2.572528
    25  H    4.204472   3.416349   2.850688   2.865993   2.190842
    26  H    6.655215   5.469173   3.339121   4.225761   2.778342
    27  H    5.624219   4.696441   2.811434   4.325570   2.892312
    28  H    6.550461   5.675553   4.106237   4.764710   3.521241
    29  H    5.557079   4.641737   4.319747   2.799205   2.895594
    30  H    6.518890   5.650933   4.767221   4.096118   3.523166
    31  H    6.620320   5.440591   4.239485   3.312930   2.781624
                    6          7          8          9         10
     6  C    0.000000
     7  C    2.538938   0.000000
     8  O    3.530914   2.397669   0.000000
     9  C    3.198001   3.208022   3.828142   0.000000
    10  C    4.591894   3.862497   4.295949   1.535015   0.000000
    11  C    3.817113   4.586096   4.996482   1.534913   2.487474
    12  H    2.756075   3.479456   5.040353   5.573654   6.749322
    13  H    2.796032   2.797472   4.977147   4.672373   5.653573
    14  H    3.476437   2.758479   4.551384   5.578429   6.423940
    15  H    2.145943   2.152388   2.690755   4.531951   5.567725
    16  H    3.962250   2.155925   2.024048   2.804733   2.687199
    17  H    2.160154   3.962120   3.924109   2.814949   4.242239
    18  H    2.147176   3.324278   2.610486   3.523764   4.724619
    19  H    3.466137   3.480172   2.585597   2.163332   2.785758
    20  H    1.096482   2.867561   4.297560   2.914658   4.325428
    21  H    1.096889   3.482317   4.259451   4.176933   5.625909
    22  H    2.869808   1.096449   3.344439   2.938689   3.475393
    23  H    3.473145   1.097489   2.593160   4.197932   4.618427
    24  H    4.165141   3.241402   0.972367   3.961886   4.264644
    25  H    2.903511   2.898931   4.199750   1.096137   2.134410
    26  H    5.152631   4.456273   4.296380   2.184590   1.095118
    27  H    4.755832   3.431041   4.066753   2.187870   1.093634
    28  H    5.287858   4.710753   5.376296   2.181542   1.095707
    29  H    3.366339   4.727428   5.272413   2.187340   3.450723
    30  H    4.670161   5.287311   5.920030   2.181495   2.653319
    31  H    4.405531   5.154518   5.060186   2.184618   2.825788
                   11         12         13         14         15
    11  C    0.000000
    12  H    6.376599   0.000000
    13  H    5.616948   1.772188   0.000000
    14  H    6.721432   1.769851   1.772289   0.000000
    15  H    5.538433   2.472369   3.061176   2.473924   0.000000
    16  H    4.247216   5.590780   4.848986   4.853254   3.807767
    17  H    2.680036   4.850881   4.863547   5.587679   3.781116
    18  H    3.992914   4.422294   4.758034   4.903123   2.619838
    19  H    2.788856   5.988426   5.631423   5.994347   4.156178
    20  H    3.411518   3.020776   2.543403   3.744199   3.058431
    21  H    4.549327   2.565728   3.181790   3.767056   2.435187
    22  H    4.332760   3.739094   2.536192   3.012934   3.060665
    23  H    5.631171   3.757057   3.179270   2.557256   2.424655
    24  H    4.990752   5.935273   5.857732   5.518426   3.571759
    25  H    2.134208   4.929135   3.811357   4.928058   4.333547
    26  H    2.826124   7.465107   6.526338   7.146758   5.996818
    27  H    3.450843   6.571549   5.375926   5.969517   5.378223
    28  H    2.652821   7.376321   6.134047   7.099623   6.461505
    29  H    1.093757   5.891220   5.308485   6.511210   5.324617
    30  H    1.095703   7.055865   6.101519   7.354299   6.437361
    31  H    1.095109   7.097176   6.491989   7.441356   5.967685
                   16         17         18         19         20
    16  H    0.000000
    17  H    4.349321   0.000000
    18  H    3.772876   1.740971   0.000000
    19  H    2.551200   2.506015   2.392461   0.000000
    20  H    4.249726   2.482592   3.056018   3.846037   0.000000
    21  H    4.983838   2.468377   2.441921   4.266882   1.756403
    22  H    2.463232   4.271324   4.049741   3.870812   2.767766
    23  H    2.483638   4.973011   4.097176   4.287449   3.866675
    24  H    2.260970   4.073012   2.844733   2.298082   4.901931
    25  H    3.127216   3.171320   3.888150   3.073683   2.333639
    26  H    2.871152   4.455219   4.822663   2.550290   5.052751
    27  H    2.155104   4.840124   5.022620   3.254735   4.542510
    28  H    3.713728   4.899329   5.631278   3.755606   4.825087
    29  H    4.833886   2.167988   3.764999   3.258498   2.896344
    30  H    4.898855   3.714841   5.068793   3.758114   4.074972
    31  H    4.484691   2.826865   4.033324   2.554540   4.216431
                   21         22         23         24         25
    21  H    0.000000
    22  H    3.871182   0.000000
    23  H    4.289557   1.762818   0.000000
    24  H    4.874837   4.078426   3.485005   0.000000
    25  H    3.897272   2.337704   3.900272   4.555592   0.000000
    26  H    6.142557   4.283618   5.149857   4.017999   3.058734
    27  H    5.843113   2.981262   3.987628   4.153093   2.442051
    28  H    6.289029   4.134133   5.471870   5.358757   2.516263
    29  H    3.894837   4.524660   5.819200   5.373365   2.441459
    30  H    5.404761   4.837672   6.303255   5.921085   2.515702
    31  H    5.071679   5.069109   6.157347   4.849904   3.058681
                   26         27         28         29         30
    26  H    0.000000
    27  H    1.775954   0.000000
    28  H    1.771458   1.754599   0.000000
    29  H    3.860568   4.306270   3.631172   0.000000
    30  H    3.089649   3.631306   2.347045   1.754754   0.000000
    31  H    2.728372   3.860506   3.088275   1.776308   1.771467
                   31
    31  H    0.000000
 Stoichiometry    C10H20O
 Framework group  C1[X(C10H20O)]
 Deg. of freedom    87
 Full point group                 C1      NOp   1
 Largest Abelian subgroup         C1      NOp   1
 Largest concise Abelian subgroup C1      NOp   1
                         Standard orientation:                         
 ---------------------------------------------------------------------
 Center     Atomic      Atomic             Coordinates (Angstroms)
 Number     Number       Type             X           Y           Z
 ---------------------------------------------------------------------
      1          6           0        3.057704   -0.979208   -0.954104
      2          6           0        2.023515   -0.283164   -0.070467
      3          6           0        0.085519    1.374067   -0.066214
      4          6           0        0.014732   -0.640519    1.432549
      5          6           0       -0.846584    0.324546    0.585905
      6          6           0        1.117488   -1.313469    0.616265
      7          6           0        1.205159    0.729373   -0.888831
      8          8           0        0.690943    2.175341    0.953335
      9          6           0       -1.760638   -0.410489   -0.445917
     10          6           0       -2.638393    0.570028   -1.236109
     11          6           0       -2.677345   -1.442572    0.225209
     12          1           0        3.667685   -1.672410   -0.365369
     13          1           0        2.577204   -1.548760   -1.756847
     14          1           0        3.730799   -0.247816   -1.413663
     15          1           0        2.569243    0.264102    0.709784
     16          1           0       -0.473591    2.068651   -0.698709
     17          1           0       -0.602162   -1.401086    1.920640
     18          1           0        0.480246   -0.078674    2.253204
     19          1           0       -1.503785    0.851175    1.292541
     20          1           0        0.672340   -1.983755   -0.128605
     21          1           0        1.719073   -1.945134    1.281292
     22          1           0        0.779410    0.240080   -1.772874
     23          1           0        1.882830    1.512441   -1.252214
     24          1           0       -0.025662    2.603583    1.451917
     25          1           0       -1.141025   -0.949662   -1.171789
     26          1           0       -3.212435    1.217561   -0.564946
     27          1           0       -2.039761    1.201537   -1.898584
     28          1           0       -3.348264    0.032829   -1.874916
     29          1           0       -2.106412   -2.282212    0.631835
     30          1           0       -3.384288   -1.866548   -0.496624
     31          1           0       -3.255925   -0.990197    1.037530
 ---------------------------------------------------------------------
 Rotational constants (GHZ):      1.4721193      0.7801062      0.6826991
 Standard basis: STO-3G (5D, 7F)
 There are    75 symmetry adapted basis functions of A   symmetry.
 Integral buffers will be    131072 words long.
 Raffenetti 1 integral format.
 Two-electron integral symmetry is turned on.
    75 basis functions,   225 primitive gaussians,    75 cartesian basis functions
    44 alpha electrons       44 beta electrons
       nuclear repulsion energy       698.6597649607 Hartrees.
 NAtoms=   31 NActive=   31 NUniq=   31 SFac= 1.00D+00 NAtFMM=   60 NAOKFM=F Big=F
 One-electron integrals computed using PRISM.
 NBasis=    75 RedAO= T  NBF=    75
 NBsUse=    75 1.00D-06 NBFU=    75
 Harris functional with IExCor=  205 diagonalized for initial guess.
 ExpMin= 1.69D-01 ExpMax= 1.31D+02 ExpMxC= 1.31D+02 IAcc=1 IRadAn=         1 AccDes= 0.00D+00
 HarFok:  IExCor=  205 AccDes= 0.00D+00 IRadAn=         1 IDoV= 1
 ScaDFX=  1.000000  1.000000  1.000000  1.000000
 FoFCou: FMM=F IPFlag=           0 FMFlag=      100000 FMFlg1=           0
         NFxFlg=           0 DoJE=T BraDBF=F KetDBF=T FulRan=T
         Omega=  0.000000  0.000000  1.000000  0.000000  0.000000 ICntrl=     500 IOpCl=  0
         NMat0=    1 NMatS0=    1 NMatT0=    0 NMatD0=    1 NMtDS0=    0 NMtDT0=    0
         I1Cent=           4 NGrid=           0.
 Petite list used in FoFCou.
 Initial guess orbital symmetries:
       Occupied  (A) (A) (A) (A) (A) (A) (A) (A) (A) (A) (A) (A)
                 (A) (A) (A) (A) (A) (A) (A) (A) (A) (A) (A) (A)
                 (A) (A) (A) (A) (A) (A) (A) (A) (A) (A) (A) (A)
                 (A) (A) (A) (A) (A) (A) (A) (A)
       Virtual   (A) (A) (A) (A) (A) (A) (A) (A) (A) (A) (A) (A)
                 (A) (A) (A) (A) (A) (A) (A) (A) (A) (A) (A) (A)
                 (A) (A) (A) (A) (A) (A) (A)
 The electronic state of the initial guess is 1-A.
 Requested convergence on RMS density matrix=1.00D-08 within 128 cycles.
 Requested convergence on MAX density matrix=1.00D-06.
 Requested convergence on             energy=1.00D-06.
 No special actions if energy rises.
 Keep R1 ints in memory in canonical form, NReq=4898789.
 SCF Done:  E(RHF) =  -459.620261745     A.U. after   10 cycles
             Convg  =    0.7380D-08             -V/T =  2.0090
 Range of M.O.s used for correlation:     1    75
 NBasis=    75 NAE=    44 NBE=    44 NFC=     0 NFV=     0
 NROrb=     75 NOA=    44 NOB=    44 NVA=    31 NVB=    31
          Differentiating once with respect to magnetic field using GIAOs.
          Electric field/nuclear overlap derivatives assumed to be zero.
          Keep R3 ints in memory in canonical form, NReq=4863575.
 FoFCou: FMM=F IPFlag=           0 FMFlag=           0 FMFlg1=           0
         NFxFlg=           0 DoJE=F BraDBF=F KetDBF=T FulRan=T
         Omega=  0.000000  0.000000  1.000000  0.000000  0.000000 ICntrl=    6100 IOpCl=  0
         NMat0=    1 NMatS0=    1 NMatT0=    0 NMatD0=    1 NMtDS0=    0 NMtDT0=    0
         I1Cent=           7 NGrid=          31.
 Symmetry not used in FoFCou.
          There are     3 degrees of freedom in the 1st order CPHF.  IDoFFX=0.
      3 vectors produced by pass  0 Test12= 4.55D-14 3.33D-08 XBig12= 6.41D+00 3.85D-01.
 AX will form     3 AO Fock derivatives at one time.
      3 vectors produced by pass  1 Test12= 4.55D-14 3.33D-08 XBig12= 9.33D-03 1.34D-02.
      3 vectors produced by pass  2 Test12= 4.55D-14 3.33D-08 XBig12= 1.05D-04 2.58D-03.
      3 vectors produced by pass  3 Test12= 4.55D-14 3.33D-08 XBig12= 1.80D-06 4.15D-04.
      3 vectors produced by pass  4 Test12= 4.55D-14 3.33D-08 XBig12= 1.52D-08 2.30D-05.
      3 vectors produced by pass  5 Test12= 4.55D-14 3.33D-08 XBig12= 2.60D-10 2.69D-06.
      3 vectors produced by pass  6 Test12= 4.55D-14 3.33D-08 XBig12= 3.08D-12 2.72D-07.
 Inverted reduced A of dimension    21 with in-core refinement.
 Calculating GIAO nuclear magnetic shielding tensors.
 SCF GIAO Magnetic shielding tensor (ppm):
      1  C    Isotropic =   220.9768   Anisotropy =    28.4354
   XX=   228.0886   YX=    -7.9488   ZX=    -9.4275
   XY=    -9.8937   YY=   216.2101   ZY=     5.6228
   XZ=   -12.3521   YZ=     5.6855   ZZ=   218.6318
   Eigenvalues:   211.3467   211.6500   239.9337
      2  C    Isotropic =   215.8351   Anisotropy =     8.5454
   XX=   218.2604   YX=    -1.7593   ZX=    -3.3799
   XY=    -1.8342   YY=   215.2954   ZY=    -3.6442
   XZ=    -6.5810   YZ=    -1.9428   ZZ=   213.9494
   Eigenvalues:   208.9419   217.0314   221.5320
      3  C    Isotropic =   189.1216   Anisotropy =    39.4126
   XX=   185.1538   YX=    11.2240   ZX=     9.3522
   XY=    12.1645   YY=   185.7696   ZY=    17.7119
   XZ=     7.7856   YZ=    16.4006   ZZ=   196.4414
   Eigenvalues:   171.1269   180.8412   215.3967
      4  C    Isotropic =   218.8387   Anisotropy =    14.2411
   XX=   223.8660   YX=    -6.0119   ZX=    -0.7787
   XY=    -8.2531   YY=   216.4632   ZY=    -3.1405
   XZ=     1.1584   YZ=    -1.0816   ZZ=   216.1867
   Eigenvalues:   211.4960   216.6872   228.3327
      5  C    Isotropic =   208.1481   Anisotropy =    16.3478
   XX=   210.9923   YX=     5.9772   ZX=     3.9371
   XY=     8.1509   YY=   208.8840   ZY=     7.3719
   XZ=     1.2534   YZ=     2.7892   ZZ=   204.5681
   Eigenvalues:   200.6769   204.7209   219.0467
      6  C    Isotropic =   217.8258   Anisotropy =    17.8798
   XX=   221.8384   YX=     1.1376   ZX=    -9.7605
   XY=     4.2649   YY=   216.1680   ZY=    -4.1244
   XZ=    -8.3038   YZ=    -3.8582   ZZ=   215.4709
   Eigenvalues:   208.6343   215.0974   229.7456
      7  C    Isotropic =   217.0502   Anisotropy =    18.1904
   XX=   219.7459   YX=   -11.0119   ZX=    -3.3601
   XY=    -8.8936   YY=   218.6543   ZY=    -0.4824
   XZ=     0.8950   YZ=    -3.2513   ZZ=   212.7505
   Eigenvalues:   208.1709   213.8026   229.1771
      8  O    Isotropic =   353.2605   Anisotropy =    92.0196
   XX=   373.1226   YX=   -25.1924   ZX=   -54.9295
   XY=   -17.6536   YY=   343.5163   ZY=    14.8472
   XZ=   -29.0369   YZ=    25.2030   ZZ=   343.1427
   Eigenvalues:   312.7937   332.3809   414.6069
      9  C    Isotropic =   215.2055   Anisotropy =    14.1158
   XX=   217.7469   YX=     5.8071   ZX=     6.2201
   XY=     6.1107   YY=   214.3823   ZY=    -2.0892
   XZ=     8.3833   YZ=    -2.3201   ZZ=   213.4873
   Eigenvalues:   204.8161   216.1844   224.6160
     10  C    Isotropic =   221.6004   Anisotropy =    25.5696
   XX=   221.3807   YX=    -8.3668   ZX=    11.0168
   XY=    -5.9160   YY=   224.7303   ZY=    -9.1023
   XZ=    10.3422   YZ=    -6.2598   ZZ=   218.6902
   Eigenvalues:   209.1694   216.9850   238.6468
     11  C    Isotropic =   221.4591   Anisotropy =    25.6016
   XX=   222.1702   YX=    13.4903   ZX=    -4.4175
   XY=    11.5695   YY=   222.9954   ZY=    -6.5469
   XZ=    -2.4370   YZ=    -9.2105   ZZ=   219.2116
   Eigenvalues:   208.8884   216.9619   238.5268
     12  H    Isotropic =    32.3908   Anisotropy =    14.0908
   XX=    35.9822   YX=    -6.8730   ZX=     1.3964
   XY=    -6.9668   YY=    32.1633   ZY=    -2.7527
   XZ=     1.1496   YZ=    -2.4770   ZZ=    29.0270
   Eigenvalues:    26.1799    29.2078    41.7847
     13  H    Isotropic =    32.7170   Anisotropy =    11.0700
   XX=    30.9701   YX=    -0.3375   ZX=    -0.2344
   XY=    -0.4364   YY=    31.7231   ZY=     6.2003
   XZ=    -0.2944   YZ=     6.2205   ZZ=    35.4576
   Eigenvalues:    27.0993    30.9547    40.0969
     14  H    Isotropic =    32.3718   Anisotropy =    13.9916
   XX=    36.8690   YX=     3.0992   ZX=    -6.0410
   XY=     2.8324   YY=    30.4817   ZY=    -2.3386
   XZ=    -6.2174   YZ=    -2.6364   ZZ=    29.7646
   Eigenvalues:    26.0976    29.3182    41.6995
     15  H    Isotropic =    32.1793   Anisotropy =    11.5295
   XX=    34.8685   YX=     2.1429   ZX=     4.4034
   XY=     1.9271   YY=    29.7464   ZY=     4.4190
   XZ=     4.4038   YZ=     4.2807   ZZ=    31.9230
   Eigenvalues:    26.1560    30.5163    39.8656
     16  H    Isotropic =    31.8462   Anisotropy =     9.9314
   XX=    31.7962   YX=    -2.3437   ZX=     4.0806
   XY=    -1.5186   YY=    33.7808   ZY=    -3.2510
   XZ=     3.7057   YZ=    -4.6395   ZZ=    29.9616
   Eigenvalues:    26.2507    30.8207    38.4672
     17  H    Isotropic =    32.4218   Anisotropy =    12.6933
   XX=    32.9537   YX=     3.7654   ZX=    -2.7977
   XY=     3.7832   YY=    31.8491   ZY=    -6.4031
   XZ=    -2.1822   YZ=    -6.0995   ZZ=    32.4627
   Eigenvalues:    25.7161    30.6654    40.8840
     18  H    Isotropic =    32.1951   Anisotropy =    12.6239
   XX=    28.7215   YX=     0.6691   ZX=     3.6370
   XY=     0.3211   YY=    29.2456   ZY=     3.1852
   XZ=     3.6740   YZ=     2.7899   ZZ=    38.6182
   Eigenvalues:    27.3369    28.6374    40.6111
     19  H    Isotropic =    33.1442   Anisotropy =    11.1628
   XX=    34.4222   YX=    -2.4935   ZX=    -3.5737
   XY=    -3.1912   YY=    31.6705   ZY=     4.4993
   XZ=    -3.6714   YZ=     4.6363   ZZ=    33.3400
   Eigenvalues:    27.8574    30.9891    40.5861
     20  H    Isotropic =    32.8580   Anisotropy =     9.0058
   XX=    32.9154   YX=     1.6903   ZX=     0.5822
   XY=     1.4037   YY=    35.7694   ZY=     4.5984
   XZ=     0.6672   YZ=     4.8662   ZZ=    29.8892
   Eigenvalues:    27.2502    32.4619    38.8618
     21  H    Isotropic =    32.4533   Anisotropy =    14.6454
   XX=    32.3943   YX=    -5.3971   ZX=     2.0555
   XY=    -5.5197   YY=    33.3671   ZY=    -6.3693
   XZ=     2.2113   YZ=    -6.6307   ZZ=    31.5985
   Eigenvalues:    25.1457    29.9973    42.2169
     22  H    Isotropic =    32.7748   Anisotropy =     9.1610
   XX=    32.4342   YX=    -0.2216   ZX=     1.7618
   XY=    -0.2951   YY=    27.8862   ZY=     2.6034
   XZ=     1.2981   YZ=     2.2770   ZZ=    38.0039
   Eigenvalues:    27.2580    32.1841    38.8821
     23  H    Isotropic =    32.0030   Anisotropy =    13.9271
   XX=    32.6395   YX=     3.7828   ZX=    -4.9288
   XY=     3.7283   YY=    34.3853   ZY=    -4.8940
   XZ=    -5.1556   YZ=    -4.7782   ZZ=    28.9843
   Eigenvalues:    24.9402    29.7811    41.2878
     24  H    Isotropic =    35.0954   Anisotropy =    18.6274
   XX=    34.5995   YX=    -4.3381   ZX=    -4.8007
   XY=    -2.6521   YY=    36.4699   ZY=     9.7433
   XZ=    -4.0309   YZ=     9.6860   ZZ=    34.2167
   Eigenvalues:    25.4391    32.3335    47.5136
     25  H    Isotropic =    32.7255   Anisotropy =     8.6030
   XX=    34.9382   YX=    -1.7573   ZX=    -2.1826
   XY=    -2.0049   YY=    30.3457   ZY=     4.1586
   XZ=    -2.3064   YZ=     4.2931   ZZ=    32.8927
   Eigenvalues:    27.2013    32.5144    38.4609
     26  H    Isotropic =    32.7870   Anisotropy =    11.8692
   XX=    34.9041   YX=    -5.9561   ZX=    -1.1225
   XY=    -5.9916   YY=    33.5975   ZY=     2.0956
   XZ=    -1.0767   YZ=     1.9765   ZZ=    29.8593
   Eigenvalues:    27.8627    29.7985    40.6998
     27  H    Isotropic =    32.5269   Anisotropy =    10.6733
   XX=    32.0109   YX=     1.9900   ZX=     0.3744
   XY=     2.4741   YY=    31.7120   ZY=    -6.6382
   XZ=     0.3526   YZ=    -6.5316   ZZ=    33.8579
   Eigenvalues:    25.5264    32.4120    39.6424
     28  H    Isotropic =    32.5874   Anisotropy =    14.1045
   XX=    34.5112   YX=     2.4866   ZX=     7.4056
   XY=     2.2081   YY=    29.4908   ZY=     0.9278
   XZ=     7.3811   YZ=     1.0168   ZZ=    33.7603
   Eigenvalues:    26.4239    29.3479    41.9904
     29  H    Isotropic =    32.3533   Anisotropy =    10.6998
   XX=    31.8188   YX=     0.0338   ZX=     1.8818
   XY=    -0.2049   YY=    37.3466   ZY=    -4.7781
   XZ=     2.3465   YZ=    -4.8800   ZZ=    27.8945
   Eigenvalues:    25.2961    32.2773    39.4865
     30  H    Isotropic =    32.5782   Anisotropy =    14.0977
   XX=    34.6673   YX=     6.2421   ZX=     4.7376
   XY=     6.2001   YY=    32.4901   ZY=     2.0319
   XZ=     4.5029   YZ=     2.0268   ZZ=    30.5773
   Eigenvalues:    26.4276    29.3304    41.9767
     31  H    Isotropic =    32.7049   Anisotropy =    11.9809
   XX=    35.1168   YX=     0.6691   ZX=    -6.0947
   XY=     0.5645   YY=    28.9558   ZY=     0.5435
   XZ=    -6.0833   YZ=     0.7549   ZZ=    34.0422
   Eigenvalues:    27.7832    29.6395    40.6922
 End of Minotr Frequency-dependent properties file   721 does not exist.
 End of Minotr Frequency-dependent properties file   722 does not exist.

 **********************************************************************

            Population analysis using the SCF density.

 **********************************************************************

 Orbital symmetries:
       Occupied  (A) (A) (A) (A) (A) (A) (A) (A) (A) (A) (A) (A)
                 (A) (A) (A) (A) (A) (A) (A) (A) (A) (A) (A) (A)
                 (A) (A) (A) (A) (A) (A) (A) (A) (A) (A) (A) (A)
                 (A) (A) (A) (A) (A) (A) (A) (A)
       Virtual   (A) (A) (A) (A) (A) (A) (A) (A) (A) (A) (A) (A)
                 (A) (A) (A) (A) (A) (A) (A) (A) (A) (A) (A) (A)
                 (A) (A) (A) (A) (A) (A) (A)
 The electronic state is 1-A.
 Alpha  occ. eigenvalues --  -20.23571 -11.08334 -11.05003 -11.04422 -11.04003
 Alpha  occ. eigenvalues --  -11.03620 -11.03333 -11.03224 -11.03215 -11.03147
 Alpha  occ. eigenvalues --  -11.02727  -1.27645  -1.07900  -1.03431  -0.96788
 Alpha  occ. eigenvalues --   -0.94828  -0.89010  -0.87732  -0.79105  -0.77675
 Alpha  occ. eigenvalues --   -0.74529  -0.68578  -0.63069  -0.60920  -0.58767
 Alpha  occ. eigenvalues --   -0.56850  -0.56649  -0.54727  -0.53555  -0.51350
 Alpha  occ. eigenvalues --   -0.50741  -0.50179  -0.48638  -0.47904  -0.47420
 Alpha  occ. eigenvalues --   -0.45774  -0.44124  -0.43544  -0.42032  -0.41329
 Alpha  occ. eigenvalues --   -0.38936  -0.38638  -0.36394  -0.32919
 Alpha virt. eigenvalues --    0.52697   0.56626   0.57122   0.60026   0.61295
 Alpha virt. eigenvalues --    0.61723   0.62898   0.63415   0.65078   0.67353
 Alpha virt. eigenvalues --    0.69307   0.70173   0.70946   0.71298   0.72375
 Alpha virt. eigenvalues --    0.72732   0.74012   0.74157   0.75700   0.76482
 Alpha virt. eigenvalues --    0.76597   0.77090   0.77504   0.79737   0.80310
 Alpha virt. eigenvalues --    0.81978   0.82221   0.82902   0.84060   0.84251
 Alpha virt. eigenvalues --    0.84896
          Condensed to atoms (all electrons):
              1          2          3          4          5          6
     1  C    4.740317   0.365695   0.000703   0.000728   0.000002  -0.024384
     2  C    0.365695   4.742998  -0.020598  -0.021886  -0.003498   0.363750
     3  C    0.000703  -0.020598   4.746209  -0.023514   0.355173  -0.003896
     4  C    0.000728  -0.021886  -0.023514   4.758049   0.360164   0.363342
     5  C    0.000002  -0.003498   0.355173   0.360164   4.790997  -0.021360
     6  C   -0.024384   0.363750  -0.003896   0.363342  -0.021360   4.754900
     7  C   -0.024191   0.362114   0.360224  -0.004265  -0.022063  -0.022795
     8  O    0.000000  -0.000646   0.265795  -0.000979  -0.017940   0.000063
     9  C    0.000000   0.000075  -0.018005  -0.019232   0.357734  -0.001440
    10  C    0.000000  -0.000001  -0.002665   0.000569  -0.021157   0.000003
    11  C    0.000000  -0.000001   0.000544  -0.002855  -0.020775   0.000003
    12  H    0.382447  -0.020200  -0.000017   0.000013   0.000000  -0.002213
    13  H    0.381910  -0.020830   0.000007   0.000008   0.000002  -0.002237
    14  H    0.382322  -0.020230   0.000012  -0.000017   0.000000   0.001292
    15  H   -0.024096   0.382607  -0.001411  -0.001586   0.000070  -0.024001
    16  H   -0.000014   0.001165   0.377205   0.001162  -0.024215   0.000009
    17  H   -0.000015   0.001231   0.001178   0.382975  -0.020100  -0.021606
    18  H    0.000006  -0.001970  -0.001750   0.381439  -0.021405  -0.022924
    19  H    0.000001   0.000009  -0.023385  -0.024384   0.378430   0.001236
    20  H   -0.002780  -0.022407   0.000069  -0.022664  -0.001519   0.380993
    21  H   -0.001787  -0.021311   0.000010  -0.021693   0.001201   0.382529
    22  H   -0.002885  -0.021938  -0.020729   0.000092  -0.001090  -0.001282
    23  H   -0.001773  -0.021828  -0.021479   0.000010   0.001147   0.001221
    24  H    0.000000   0.000023  -0.040792   0.000011  -0.003019  -0.000005
    25  H    0.000003   0.000035  -0.001522  -0.001364  -0.022148  -0.000445
    26  H    0.000000   0.000000  -0.000024   0.000011  -0.002533   0.000000
    27  H    0.000000  -0.000001  -0.001277  -0.000002  -0.000997   0.000001
    28  H    0.000000   0.000000   0.000038  -0.000012   0.001098   0.000000
    29  H    0.000000  -0.000001  -0.000002  -0.001252  -0.001032   0.000001
    30  H    0.000000   0.000000  -0.000011   0.000040   0.001094  -0.000001
    31  H    0.000000   0.000000   0.000010  -0.000038  -0.002509   0.000003
              7          8          9         10         11         12
     1  C   -0.024191   0.000000   0.000000   0.000000   0.000000   0.382447
     2  C    0.362114  -0.000646   0.000075  -0.000001  -0.000001  -0.020200
     3  C    0.360224   0.265795  -0.018005  -0.002665   0.000544  -0.000017
     4  C   -0.004265  -0.000979  -0.019232   0.000569  -0.002855   0.000013
     5  C   -0.022063  -0.017940   0.357734  -0.021157  -0.020775   0.000000
     6  C   -0.022795   0.000063  -0.001440   0.000003   0.000003  -0.002213
     7  C    4.760770  -0.018644  -0.001130   0.000027   0.000002   0.001279
     8  O   -0.018644   7.850289   0.000202   0.000004  -0.000001   0.000000
     9  C   -0.001130   0.000202   4.741895   0.363899   0.364148   0.000000
    10  C    0.000027   0.000004   0.363899   4.745887  -0.027235   0.000000
    11  C    0.000002  -0.000001   0.364148  -0.027235   4.743843   0.000000
    12  H    0.001279   0.000000   0.000000   0.000000   0.000000   0.630541
    13  H   -0.002227   0.000000   0.000000   0.000000   0.000000  -0.021794
    14  H   -0.002186   0.000000   0.000000   0.000000   0.000000  -0.021577
    15  H   -0.023594   0.000254  -0.000002   0.000000   0.000000  -0.002304
    16  H   -0.023951  -0.020067  -0.001673  -0.001386   0.000000   0.000000
    17  H    0.000011   0.000002  -0.002094   0.000007  -0.001385  -0.000001
    18  H    0.000052   0.000255   0.001095  -0.000012   0.000035   0.000002
    19  H    0.001126  -0.001648  -0.023383  -0.002179  -0.002096   0.000000
    20  H   -0.001324  -0.000001  -0.000524  -0.000001   0.000005  -0.000019
    21  H    0.001215  -0.000001   0.000011   0.000000  -0.000001   0.000231
    22  H    0.380811   0.000574  -0.000698   0.000006   0.000002   0.000021
    23  H    0.381750  -0.000842   0.000013  -0.000001   0.000000   0.000008
    24  H    0.002599   0.257068   0.000003   0.000004   0.000000   0.000000
    25  H   -0.000488  -0.000001   0.381472  -0.024665  -0.024551   0.000000
    26  H    0.000002  -0.000002  -0.020857   0.381806  -0.001436   0.000000
    27  H    0.000016   0.000003  -0.019619   0.382716   0.001369   0.000000
    28  H   -0.000001   0.000000  -0.019471   0.382689  -0.003876   0.000000
    29  H    0.000001   0.000000  -0.019547   0.001367   0.382903   0.000000
    30  H    0.000000   0.000000  -0.019526  -0.003858   0.382610   0.000000
    31  H    0.000000   0.000000  -0.020836  -0.001439   0.381873   0.000000
             13         14         15         16         17         18
     1  C    0.381910   0.382322  -0.024096  -0.000014  -0.000015   0.000006
     2  C   -0.020830  -0.020230   0.382607   0.001165   0.001231  -0.001970
     3  C    0.000007   0.000012  -0.001411   0.377205   0.001178  -0.001750
     4  C    0.000008  -0.000017  -0.001586   0.001162   0.382975   0.381439
     5  C    0.000002   0.000000   0.000070  -0.024215  -0.020100  -0.021405
     6  C   -0.002237   0.001292  -0.024001   0.000009  -0.021606  -0.022924
     7  C   -0.002227  -0.002186  -0.023594  -0.023951   0.000011   0.000052
     8  O    0.000000   0.000000   0.000254  -0.020067   0.000002   0.000255
     9  C    0.000000   0.000000  -0.000002  -0.001673  -0.002094   0.001095
    10  C    0.000000   0.000000   0.000000  -0.001386   0.000007  -0.000012
    11  C    0.000000   0.000000   0.000000   0.000000  -0.001385   0.000035
    12  H   -0.021794  -0.021577  -0.002304   0.000000  -0.000001   0.000002
    13  H    0.633672  -0.021801   0.001892  -0.000001   0.000000  -0.000001
    14  H   -0.021801   0.630400  -0.002311  -0.000001   0.000000   0.000000
    15  H    0.001892  -0.002311   0.639593  -0.000001   0.000001   0.000278
    16  H   -0.000001  -0.000001  -0.000001   0.658685  -0.000030   0.000022
    17  H    0.000000   0.000000   0.000001  -0.000030   0.640513  -0.024467
    18  H   -0.000001   0.000000   0.000278   0.000022  -0.024467   0.638749
    19  H    0.000000   0.000000  -0.000010  -0.001376  -0.001538  -0.003242
    20  H    0.000379   0.000019   0.001886  -0.000009  -0.002475   0.001957
    21  H    0.000001   0.000009  -0.002998   0.000002  -0.002025  -0.002767
    22  H    0.000397  -0.000026   0.001867  -0.002235  -0.000008   0.000005
    23  H   -0.000004   0.000243  -0.003115  -0.002012   0.000002  -0.000012
    24  H    0.000000   0.000000  -0.000033  -0.003367  -0.000010  -0.000009
    25  H    0.000000   0.000000  -0.000002   0.000067   0.000058  -0.000009
    26  H    0.000000   0.000000   0.000000   0.000006   0.000002  -0.000001
    27  H    0.000000   0.000000   0.000000  -0.001278   0.000000   0.000000
    28  H    0.000000   0.000000   0.000000   0.000015  -0.000001   0.000000
    29  H    0.000000   0.000000   0.000000   0.000000  -0.001304   0.000012
    30  H    0.000000   0.000000   0.000000   0.000000   0.000013   0.000000
    31  H    0.000000   0.000000   0.000000   0.000001   0.000008  -0.000010
             19         20         21         22         23         24
     1  C    0.000001  -0.002780  -0.001787  -0.002885  -0.001773   0.000000
     2  C    0.000009  -0.022407  -0.021311  -0.021938  -0.021828   0.000023
     3  C   -0.023385   0.000069   0.000010  -0.020729  -0.021479  -0.040792
     4  C   -0.024384  -0.022664  -0.021693   0.000092   0.000010   0.000011
     5  C    0.378430  -0.001519   0.001201  -0.001090   0.001147  -0.003019
     6  C    0.001236   0.380993   0.382529  -0.001282   0.001221  -0.000005
     7  C    0.001126  -0.001324   0.001215   0.380811   0.381750   0.002599
     8  O   -0.001648  -0.000001  -0.000001   0.000574  -0.000842   0.257068
     9  C   -0.023383  -0.000524   0.000011  -0.000698   0.000013   0.000003
    10  C   -0.002179  -0.000001   0.000000   0.000006  -0.000001   0.000004
    11  C   -0.002096   0.000005  -0.000001   0.000002   0.000000   0.000000
    12  H    0.000000  -0.000019   0.000231   0.000021   0.000008   0.000000
    13  H    0.000000   0.000379   0.000001   0.000397  -0.000004   0.000000
    14  H    0.000000   0.000019   0.000009  -0.000026   0.000243   0.000000
    15  H   -0.000010   0.001886  -0.002998   0.001867  -0.003115  -0.000033
    16  H   -0.001376  -0.000009   0.000002  -0.002235  -0.002012  -0.003367
    17  H   -0.001538  -0.002475  -0.002025  -0.000008   0.000002  -0.000010
    18  H   -0.003242   0.001957  -0.002767   0.000005  -0.000012  -0.000009
    19  H    0.660201  -0.000004  -0.000031   0.000006  -0.000032   0.000644
    20  H   -0.000004   0.647575  -0.023849   0.000279  -0.000005   0.000000
    21  H   -0.000031  -0.023849   0.641717  -0.000005  -0.000033   0.000000
    22  H    0.000006   0.000279  -0.000005   0.639145  -0.022608  -0.000077
    23  H   -0.000032  -0.000005  -0.000033  -0.022608   0.630350   0.000046
    24  H    0.000644   0.000000   0.000000  -0.000077   0.000046   0.612533
    25  H    0.001754  -0.000578   0.000000  -0.000480  -0.000001   0.000000
    26  H    0.000391   0.000000   0.000000  -0.000001   0.000000   0.000002
    27  H    0.000024   0.000001   0.000000   0.000041   0.000001   0.000000
    28  H    0.000006   0.000001   0.000000  -0.000001   0.000000   0.000000
    29  H    0.000022   0.000036   0.000001   0.000001   0.000000   0.000000
    30  H    0.000004  -0.000001   0.000000   0.000000   0.000000   0.000000
    31  H    0.000406  -0.000001   0.000000   0.000000   0.000000   0.000000
             25         26         27         28         29         30
     1  C    0.000003   0.000000   0.000000   0.000000   0.000000   0.000000
     2  C    0.000035   0.000000  -0.000001   0.000000  -0.000001   0.000000
     3  C   -0.001522  -0.000024  -0.001277   0.000038  -0.000002  -0.000011
     4  C   -0.001364   0.000011  -0.000002  -0.000012  -0.001252   0.000040
     5  C   -0.022148  -0.002533  -0.000997   0.001098  -0.001032   0.001094
     6  C   -0.000445   0.000000   0.000001   0.000000   0.000001  -0.000001
     7  C   -0.000488   0.000002   0.000016  -0.000001   0.000001   0.000000
     8  O   -0.000001  -0.000002   0.000003   0.000000   0.000000   0.000000
     9  C    0.381472  -0.020857  -0.019619  -0.019471  -0.019547  -0.019526
    10  C   -0.024665   0.381806   0.382716   0.382689   0.001367  -0.003858
    11  C   -0.024551  -0.001436   0.001369  -0.003876   0.382903   0.382610
    12  H    0.000000   0.000000   0.000000   0.000000   0.000000   0.000000
    13  H    0.000000   0.000000   0.000000   0.000000   0.000000   0.000000
    14  H    0.000000   0.000000   0.000000   0.000000   0.000000   0.000000
    15  H   -0.000002   0.000000   0.000000   0.000000   0.000000   0.000000
    16  H    0.000067   0.000006  -0.001278   0.000015   0.000000   0.000000
    17  H    0.000058   0.000002   0.000000  -0.000001  -0.001304   0.000013
    18  H   -0.000009  -0.000001   0.000000   0.000000   0.000012   0.000000
    19  H    0.001754   0.000391   0.000024   0.000006   0.000022   0.000004
    20  H   -0.000578   0.000000   0.000001   0.000001   0.000036  -0.000001
    21  H    0.000000   0.000000   0.000000   0.000000   0.000001   0.000000
    22  H   -0.000480  -0.000001   0.000041  -0.000001   0.000001   0.000000
    23  H   -0.000001   0.000000   0.000001   0.000000   0.000000   0.000000
    24  H    0.000000   0.000002   0.000000   0.000000   0.000000   0.000000
    25  H    0.649552   0.001894  -0.003027  -0.001504  -0.003038  -0.001513
    26  H    0.001894   0.631835  -0.021583  -0.021524  -0.000004   0.000014
    27  H   -0.003027  -0.021583   0.632655  -0.022641  -0.000039   0.000062
    28  H   -0.001504  -0.021524  -0.022641   0.630082   0.000063  -0.000113
    29  H   -0.003038  -0.000004  -0.000039   0.000063   0.630759  -0.022661
    30  H   -0.001513   0.000014   0.000062  -0.000113  -0.022661   0.631033
    31  H    0.001892   0.000269  -0.000004   0.000012  -0.021452  -0.021576
             31
     1  C    0.000000
     2  C    0.000000
     3  C    0.000010
     4  C   -0.000038
     5  C   -0.002509
     6  C    0.000003
     7  C    0.000000
     8  O    0.000000
     9  C   -0.020836
    10  C   -0.001439
    11  C    0.381873
    12  H    0.000000
    13  H    0.000000
    14  H    0.000000
    15  H    0.000000
    16  H    0.000001
    17  H    0.000008
    18  H   -0.000010
    19  H    0.000406
    20  H   -0.000001
    21  H    0.000000
    22  H    0.000000
    23  H    0.000000
    24  H    0.000000
    25  H    0.001892
    26  H    0.000269
    27  H   -0.000004
    28  H    0.000012
    29  H   -0.021452
    30  H   -0.021576
    31  H    0.630893
 Mulliken atomic charges:
              1
     1  C   -0.172208
     2  C   -0.022353
     3  C    0.073901
     4  C   -0.102873
     5  C   -0.039752
     6  C   -0.100756
     7  C   -0.105135
     8  O   -0.313737
     9  C   -0.022508
    10  C   -0.174386
    11  C   -0.173127
    12  H    0.053582
    13  H    0.050627
    14  H    0.053852
    15  H    0.057016
    16  H    0.043276
    17  H    0.051058
    18  H    0.054670
    19  H    0.039049
    20  H    0.044963
    21  H    0.049574
    22  H    0.050817
    23  H    0.058952
    24  H    0.174379
    25  H    0.048609
    26  H    0.051735
    27  H    0.053579
    28  H    0.055141
    29  H    0.055166
    30  H    0.054390
    31  H    0.052500
 Sum of Mulliken atomic charges =   0.00000
 Mulliken charges with hydrogens summed into heavy atoms:
              1
     1  C   -0.014147
     2  C    0.034663
     3  C    0.117177
     4  C    0.002855
     5  C   -0.000703
     6  C   -0.006219
     7  C    0.004635
     8  O   -0.139359
     9  C    0.026101
    10  C   -0.013931
    11  C   -0.011072
 Sum of Mulliken charges with hydrogens summed into heavy atoms =   0.00000
 Electronic spatial extent (au):  <R**2>=           2022.1280
 Charge=              0.0000 electrons
 Dipole moment (field-independent basis, Debye):
    X=             -1.2869    Y=             -0.2359    Z=             -0.1700  Tot=              1.3193
 Quadrupole moment (field-independent basis, Debye-Ang):
   XX=            -68.9676   YY=            -68.0534   ZZ=            -66.8870
   XY=             -3.0403   XZ=             -1.3688   YZ=              0.3823
 Traceless Quadrupole moment (field-independent basis, Debye-Ang):
   XX=             -0.9982   YY=             -0.0841   ZZ=              1.0823
   XY=             -3.0403   XZ=             -1.3688   YZ=              0.3823
 Octapole moment (field-independent basis, Debye-Ang**2):
  XXX=              3.3978  YYY=             13.8450  ZZZ=              7.2688  XYY=             -6.4286
  XXY=              2.9157  XXZ=              2.1794  XZZ=             -0.8168  YZZ=              6.0593
  YYZ=              3.8868  XYZ=             -6.3389
 Hexadecapole moment (field-independent basis, Debye-Ang**3):
 XXXX=          -1537.3405 YYYY=           -606.4897 ZZZZ=           -418.1040 XXXY=             11.8246
 XXXZ=              8.2663 YYYX=            -11.4556 YYYZ=             20.1717 ZZZX=              3.6753
 ZZZY=             19.5545 XXYY=           -364.3638 XXZZ=           -324.9217 YYZZ=           -162.4163
 XXYZ=              1.9183 YYXZ=             -5.9601 ZZXY=              1.5342
 N-N= 6.986597649607D+02 E-N=-2.469351105650D+03  KE= 4.555166410024D+02
 ******************************Gaussian NBO Version 3.1******************************
             N A T U R A L   A T O M I C   O R B I T A L   A N D
          N A T U R A L   B O N D   O R B I T A L   A N A L Y S I S
 ******************************Gaussian NBO Version 3.1******************************
       /RESON  / : Allow strongly delocalized NBO set
       /NLMO   / : Form Natural Localized Molecular Orbitals
       /NMR /    : Analyze NMR Sheilding Tensor 

 Analyzing the SCF density

 Job title: comment                                                         

 Storage needed:     19864 in NPA,     23691 in NBO,     45933 in NLMO (  33549317 available)


 NATURAL POPULATIONS:  Natural atomic orbital occupancies 
                                                          
   NAO  Atom  No  lang   Type(AO)    Occupancy      Energy
 ----------------------------------------------------------
     1    C    1  S      Cor( 1S)     1.99997     -10.96079
     2    C    1  S      Val( 2S)     1.07971      -0.17737
     3    C    1  px     Val( 2p)     1.01240       0.08875
     4    C    1  py     Val( 2p)     1.02031       0.08950
     5    C    1  pz     Val( 2p)     1.01499       0.09051

     6    C    2  S      Cor( 1S)     1.99997     -10.98281
     7    C    2  S      Val( 2S)     1.08001      -0.18592
     8    C    2  px     Val( 2p)     0.96323       0.11338
     9    C    2  py     Val( 2p)     0.96417       0.11522
    10    C    2  pz     Val( 2p)     0.97743       0.11177

    11    C    3  S      Cor( 1S)     1.99988     -11.03246
    12    C    3  S      Val( 2S)     1.08928      -0.21639
    13    C    3  px     Val( 2p)     0.94600       0.09569
    14    C    3  py     Val( 2p)     0.93011       0.10065
    15    C    3  pz     Val( 2p)     0.89264       0.10756

    16    C    4  S      Cor( 1S)     1.99995     -10.97095
    17    C    4  S      Val( 2S)     1.08469      -0.18622
    18    C    4  px     Val( 2p)     0.99035       0.09903
    19    C    4  py     Val( 2p)     0.99918       0.09911
    20    C    4  pz     Val( 2p)     0.99175       0.09907

    21    C    5  S      Cor( 1S)     1.99995     -10.99008
    22    C    5  S      Val( 2S)     1.10499      -0.21562
    23    C    5  px     Val( 2p)     0.96706       0.10252
    24    C    5  py     Val( 2p)     0.97411       0.09559
    25    C    5  pz     Val( 2p)     0.97070       0.10190

    26    C    6  S      Cor( 1S)     1.99996     -10.96953
    27    C    6  S      Val( 2S)     1.08267      -0.18274
    28    C    6  px     Val( 2p)     0.98905       0.10040
    29    C    6  py     Val( 2p)     0.98907       0.10198
    30    C    6  pz     Val( 2p)     1.00264       0.09903

    31    C    7  S      Cor( 1S)     1.99996     -10.97489
    32    C    7  S      Val( 2S)     1.09004      -0.19381
    33    C    7  px     Val( 2p)     0.99208       0.09406
    34    C    7  py     Val( 2p)     1.00511       0.09061
    35    C    7  pz     Val( 2p)     0.99338       0.09500

    36    O    8  S      Cor( 1S)     1.99999     -20.14005
    37    O    8  S      Val( 2S)     1.75157      -0.99892
    38    O    8  px     Val( 2p)     1.48471      -0.18469
    39    O    8  py     Val( 2p)     1.63214      -0.22792
    40    O    8  pz     Val( 2p)     1.46645      -0.15727

    41    C    9  S      Cor( 1S)     1.99996     -10.99440
    42    C    9  S      Val( 2S)     1.08547      -0.20025
    43    C    9  px     Val( 2p)     0.96316       0.10509
    44    C    9  py     Val( 2p)     0.96173       0.10553
    45    C    9  pz     Val( 2p)     0.97045       0.10437

    46    C   10  S      Cor( 1S)     1.99997     -10.96717
    47    C   10  S      Val( 2S)     1.08143      -0.18574
    48    C   10  px     Val( 2p)     1.01555       0.08175
    49    C   10  py     Val( 2p)     1.01612       0.08129
    50    C   10  pz     Val( 2p)     1.01695       0.08423

    51    C   11  S      Cor( 1S)     1.99997     -10.96602
    52    C   11  S      Val( 2S)     1.08124      -0.18415
    53    C   11  px     Val( 2p)     1.01374       0.08387
    54    C   11  py     Val( 2p)     1.01036       0.08624
    55    C   11  pz     Val( 2p)     1.02354       0.08214

    56    H   12  S      Val( 1S)     0.96361       0.07823

    57    H   13  S      Val( 1S)     0.96647       0.07593

    58    H   14  S      Val( 1S)     0.96342       0.07872

    59    H   15  S      Val( 1S)     0.96826       0.08085

    60    H   16  S      Val( 1S)     0.99313       0.05300

    61    H   17  S      Val( 1S)     0.97035       0.07596

    62    H   18  S      Val( 1S)     0.96683       0.07842

    63    H   19  S      Val( 1S)     0.98573       0.05471

    64    H   20  S      Val( 1S)     0.97570       0.07238

    65    H   21  S      Val( 1S)     0.97090       0.07436

    66    H   22  S      Val( 1S)     0.96957       0.06857

    67    H   23  S      Val( 1S)     0.96222       0.07774

    68    H   24  S      Val( 1S)     0.81325       0.07445

    69    H   25  S      Val( 1S)     0.97716       0.06527

    70    H   26  S      Val( 1S)     0.96554       0.06964

    71    H   27  S      Val( 1S)     0.96402       0.07392

    72    H   28  S      Val( 1S)     0.96217       0.07292

    73    H   29  S      Val( 1S)     0.96256       0.07684

    74    H   30  S      Val( 1S)     0.96291       0.07347

    75    H   31  S      Val( 1S)     0.96487       0.07182


 Summary of Natural Population Analysis:                  
                                                          
                                       Natural Population 
                Natural  -----------------------------------------------
    Atom  No    Charge         Core      Valence    Rydberg      Total
 -----------------------------------------------------------------------
      C    1   -0.12739      1.99997     4.12741    0.00000     6.12739
      C    2    0.01519      1.99997     3.98484    0.00000     5.98481
      C    3    0.14208      1.99988     3.85803    0.00000     5.85792
      C    4   -0.06592      1.99995     4.06597    0.00000     6.06592
      C    5   -0.01682      1.99995     4.01686    0.00000     6.01682
      C    6   -0.06339      1.99996     4.06343    0.00000     6.06339
      C    7   -0.08057      1.99996     4.08062    0.00000     6.08057
      O    8   -0.33487      1.99999     6.33488    0.00000     8.33487
      C    9    0.01922      1.99996     3.98082    0.00000     5.98078
      C   10   -0.13002      1.99997     4.13005    0.00000     6.13002
      C   11   -0.12885      1.99997     4.12889    0.00000     6.12885
      H   12    0.03639      0.00000     0.96361    0.00000     0.96361
      H   13    0.03353      0.00000     0.96647    0.00000     0.96647
      H   14    0.03658      0.00000     0.96342    0.00000     0.96342
      H   15    0.03174      0.00000     0.96826    0.00000     0.96826
      H   16    0.00687      0.00000     0.99313    0.00000     0.99313
      H   17    0.02965      0.00000     0.97035    0.00000     0.97035
      H   18    0.03317      0.00000     0.96683    0.00000     0.96683
      H   19    0.01427      0.00000     0.98573    0.00000     0.98573
      H   20    0.02430      0.00000     0.97570    0.00000     0.97570
      H   21    0.02910      0.00000     0.97090    0.00000     0.97090
      H   22    0.03043      0.00000     0.96957    0.00000     0.96957
      H   23    0.03778      0.00000     0.96222    0.00000     0.96222
      H   24    0.18675      0.00000     0.81325    0.00000     0.81325
      H   25    0.02284      0.00000     0.97716    0.00000     0.97716
      H   26    0.03446      0.00000     0.96554    0.00000     0.96554
      H   27    0.03598      0.00000     0.96402    0.00000     0.96402
      H   28    0.03783      0.00000     0.96217    0.00000     0.96217
      H   29    0.03744      0.00000     0.96256    0.00000     0.96256
      H   30    0.03709      0.00000     0.96291    0.00000     0.96291
      H   31    0.03513      0.00000     0.96487    0.00000     0.96487
 =======================================================================
   * Total *    0.00000     21.99953    66.00047    0.00000    88.00000

                                 Natural Population      
 --------------------------------------------------------
   Core                      21.99953 ( 99.9979% of  22)
   Valence                   66.00047 (100.0007% of  66)
   Natural Minimal Basis     88.00000 (100.0000% of  88)
   Natural Rydberg Basis      0.00000 (  0.0000% of  88)
 --------------------------------------------------------

    Atom  No          Natural Electron Configuration
 ----------------------------------------------------------------------------
      C    1      [core]2S( 1.08)2p( 3.05)
      C    2      [core]2S( 1.08)2p( 2.90)
      C    3      [core]2S( 1.09)2p( 2.77)
      C    4      [core]2S( 1.08)2p( 2.98)
      C    5      [core]2S( 1.10)2p( 2.91)
      C    6      [core]2S( 1.08)2p( 2.98)
      C    7      [core]2S( 1.09)2p( 2.99)
      O    8      [core]2S( 1.75)2p( 4.58)
      C    9      [core]2S( 1.09)2p( 2.90)
      C   10      [core]2S( 1.08)2p( 3.05)
      C   11      [core]2S( 1.08)2p( 3.05)
      H   12            1S( 0.96)
      H   13            1S( 0.97)
      H   14            1S( 0.96)
      H   15            1S( 0.97)
      H   16            1S( 0.99)
      H   17            1S( 0.97)
      H   18            1S( 0.97)
      H   19            1S( 0.99)
      H   20            1S( 0.98)
      H   21            1S( 0.97)
      H   22            1S( 0.97)
      H   23            1S( 0.96)
      H   24            1S( 0.81)
      H   25            1S( 0.98)
      H   26            1S( 0.97)
      H   27            1S( 0.96)
      H   28            1S( 0.96)
      H   29            1S( 0.96)
      H   30            1S( 0.96)
      H   31            1S( 0.96)


 NATURAL BOND ORBITAL ANALYSIS:

                       Occupancies       Lewis Structure    Low   High
           Occ.    -------------------  -----------------   occ   occ
  Cycle   Thresh.   Lewis   Non-Lewis     CR  BD  3C  LP    (L)   (NL)   Dev
 =============================================================================
   1(1)    1.90    87.63830   0.36170     11  31   0   2     0      0    0.02
 -----------------------------------------------------------------------------

 Structure accepted: No low occupancy Lewis orbitals

 --------------------------------------------------------
   Core                     21.99953 ( 99.998% of  22)
   Valence Lewis            65.63878 ( 99.453% of  66)
  ==================       ============================
   Total Lewis              87.63830 ( 99.589% of  88)
  -----------------------------------------------------
   Valence non-Lewis         0.36170 (  0.411% of  88)
   Rydberg non-Lewis         0.00000 (  0.000% of  88)
  ==================       ============================
   Total non-Lewis           0.36170 (  0.411% of  88)
 --------------------------------------------------------


       (Occupancy)   Bond orbital/ Coefficients/ Hybrids
 ---------------------------------------------------------------------------------
     1. (1.98895) BD ( 1) C   1 - C   2  
                ( 50.99%)   0.7141* C   1 s( 25.77%)p 2.88( 74.23%)
                                            0.0001  0.5076 -0.5866  0.3910  0.4952
                ( 49.01%)   0.7000* C   2 s( 25.14%)p 2.98( 74.86%)
                                            0.0000  0.5014  0.5690 -0.4009 -0.5139
     2. (1.99498) BD ( 1) C   1 - H  12  
                ( 51.83%)   0.7199* C   1 s( 24.74%)p 3.04( 75.26%)
                                            0.0000  0.4974  0.4729 -0.5455  0.4810
                ( 48.17%)   0.6940* H  12 s(100.00%)
                                            1.0000
     3. (1.99546) BD ( 1) C   1 - H  13  
                ( 51.72%)   0.7192* C   1 s( 24.77%)p 3.04( 75.23%)
                                            0.0000  0.4977 -0.3974 -0.4455 -0.6292
                ( 48.28%)   0.6948* H  13 s(100.00%)
                                            1.0000
     4. (1.99504) BD ( 1) C   1 - H  14  
                ( 51.84%)   0.7200* C   1 s( 24.72%)p 3.05( 75.28%)
                                            0.0000  0.4972  0.5237  0.5925 -0.3571
                ( 48.16%)   0.6939* H  14 s(100.00%)
                                            1.0000
     5. (1.98543) BD ( 1) C   2 - C   6  
                ( 49.50%)   0.7036* C   2 s( 25.06%)p 2.99( 74.94%)
                                            0.0000  0.5006 -0.5207 -0.5852  0.3685
                ( 50.50%)   0.7106* C   6 s( 25.36%)p 2.94( 74.64%)
                                            0.0001  0.5036  0.4991  0.5901 -0.3861
     6. (1.98493) BD ( 1) C   2 - C   7  
                ( 49.26%)   0.7019* C   2 s( 25.05%)p 2.99( 74.95%)
                                            0.0000  0.5005 -0.4728  0.5544 -0.4676
                ( 50.74%)   0.7123* C   7 s( 25.19%)p 2.97( 74.81%)
                                            0.0001  0.5019  0.4423 -0.5724  0.4742
     7. (1.98494) BD ( 1) C   2 - H  15  
                ( 51.52%)   0.7178* C   2 s( 24.75%)p 3.04( 75.25%)
                                            0.0000  0.4975  0.4261  0.4353  0.6176
                ( 48.48%)   0.6963* H  15 s(100.00%)
                                            1.0000
     8. (1.98211) BD ( 1) C   3 - C   5  
                ( 49.95%)   0.7068* C   3 s( 25.78%)p 2.88( 74.22%)
                                            0.0001  0.5078 -0.5165 -0.5932  0.3513
                ( 50.05%)   0.7074* C   5 s( 24.97%)p 3.00( 75.03%)
                                            0.0000  0.4997  0.5163  0.5712 -0.3969
     9. (1.98640) BD ( 1) C   3 - C   7  
                ( 50.07%)   0.7076* C   3 s( 26.49%)p 2.77( 73.51%)
                                            0.0000  0.5147  0.6344 -0.3726 -0.4403
                ( 49.93%)   0.7066* C   7 s( 25.06%)p 2.99( 74.94%)
                                            0.0001  0.5006 -0.6294  0.3503  0.4801
    10. (1.98819) BD ( 1) C   3 - O   8  
                ( 41.00%)   0.6403* C   3 s( 21.87%)p 3.57( 78.13%)
                                           -0.0001  0.4676  0.3548  0.4782  0.6533
                ( 59.00%)   0.7681* O   8 s( 16.22%)p 5.17( 83.78%)
                                            0.0000  0.4027 -0.4410 -0.5007 -0.6266
    11. (1.98836) BD ( 1) C   3 - H  16  
                ( 50.64%)   0.7116* C   3 s( 25.86%)p 2.87( 74.14%)
                                            0.0000  0.5085 -0.4526  0.5297 -0.5059
                ( 49.36%)   0.7026* H  16 s(100.00%)
                                            1.0000
    12. (1.98433) BD ( 1) C   4 - C   5  
                ( 50.14%)   0.7081* C   4 s( 25.31%)p 2.95( 74.69%)
                                            0.0001  0.5031 -0.4805  0.5229 -0.4926
                ( 49.86%)   0.7061* C   5 s( 24.99%)p 3.00( 75.01%)
                                            0.0000  0.4999  0.4831 -0.5664  0.4426
    13. (1.99033) BD ( 1) C   4 - C   6  
                ( 50.04%)   0.7074* C   4 s( 25.30%)p 2.95( 74.70%)
                                            0.0000  0.5030  0.6122 -0.3748 -0.4813
                ( 49.96%)   0.7069* C   6 s( 25.19%)p 2.97( 74.81%)
                                            0.0000  0.5019 -0.6227  0.3944  0.4526
    14. (1.98931) BD ( 1) C   4 - H  17  
                ( 51.48%)   0.7175* C   4 s( 25.05%)p 2.99( 74.95%)
                                            0.0000  0.5005 -0.5029 -0.6078  0.3566
                ( 48.52%)   0.6966* H  17 s(100.00%)
                                            1.0000
    15. (1.98974) BD ( 1) C   4 - H  18  
                ( 51.65%)   0.7187* C   4 s( 24.34%)p 3.11( 75.66%)
                                            0.0000  0.4933  0.3760  0.4655  0.6313
                ( 48.35%)   0.6954* H  18 s(100.00%)
                                            1.0000
    16. (1.97892) BD ( 1) C   5 - C   9  
                ( 50.01%)   0.7072* C   5 s( 25.53%)p 2.92( 74.47%)
                                            0.0001  0.5052 -0.4766 -0.4181 -0.5855
                ( 49.99%)   0.7070* C   9 s( 25.41%)p 2.94( 74.59%)
                                            0.0001  0.5041  0.4967  0.4098  0.5756
    17. (1.98333) BD ( 1) C   5 - H  19  
                ( 50.61%)   0.7114* C   5 s( 24.51%)p 3.08( 75.49%)
                                            0.0000  0.4951 -0.5225  0.4220  0.5511
                ( 49.39%)   0.7028* H  19 s(100.00%)
                                            1.0000
    18. (1.99046) BD ( 1) C   6 - H  20  
                ( 51.26%)   0.7159* C   6 s( 24.70%)p 3.05( 75.30%)
                                            0.0000  0.4970 -0.3604 -0.5123 -0.6006
                ( 48.74%)   0.6982* H  20 s(100.00%)
                                            1.0000
    19. (1.98965) BD ( 1) C   6 - H  21  
                ( 51.42%)   0.7171* C   6 s( 24.74%)p 3.04( 75.26%)
                                            0.0000  0.4974  0.4830 -0.4835  0.5343
                ( 48.58%)   0.6970* H  21 s(100.00%)
                                            1.0000
    20. (1.98837) BD ( 1) C   7 - H  22  
                ( 51.48%)   0.7175* C   7 s( 24.94%)p 3.01( 75.06%)
                                            0.0000  0.4994 -0.3479 -0.3990 -0.6858
                ( 48.52%)   0.6966* H  22 s(100.00%)
                                            1.0000
    21. (1.98880) BD ( 1) C   7 - H  23  
                ( 51.84%)   0.7200* C   7 s( 24.80%)p 3.03( 75.20%)
                                            0.0000  0.4980  0.5358  0.6249 -0.2727
                ( 48.16%)   0.6940* H  23 s(100.00%)
                                            1.0000
    22. (1.98961) BD ( 1) O   8 - H  24  
                ( 59.35%)   0.7704* O   8 s( 16.68%)p 5.00( 83.32%)
                                            0.0000 -0.4084  0.6974 -0.3841 -0.4464
                ( 40.65%)   0.6376* H  24 s(100.00%)
                                           -1.0000
    23. (1.98915) BD ( 1) C   9 - C  10  
                ( 48.96%)   0.6997* C   9 s( 24.84%)p 3.03( 75.16%)
                                            0.0000  0.4984 -0.4901  0.5761 -0.4237
                ( 51.04%)   0.7144* C  10 s( 25.81%)p 2.87( 74.19%)
                                            0.0001  0.5080  0.4975 -0.5438  0.4457
    24. (1.98909) BD ( 1) C   9 - C  11  
                ( 49.08%)   0.7005* C   9 s( 24.95%)p 3.01( 75.05%)
                                            0.0000  0.4995 -0.5118 -0.5675  0.4081
                ( 50.92%)   0.7136* C  11 s( 25.79%)p 2.88( 74.21%)
                                            0.0001  0.5078  0.5191  0.5796 -0.3697
    25. (1.98473) BD ( 1) C   9 - H  25  
                ( 51.08%)   0.7147* C   9 s( 24.80%)p 3.03( 75.20%)
                                            0.0000  0.4980  0.5012 -0.4222 -0.5680
                ( 48.92%)   0.6994* H  25 s(100.00%)
                                            1.0000
    26. (1.99569) BD ( 1) C  10 - H  26  
                ( 51.77%)   0.7195* C  10 s( 24.86%)p 3.02( 75.14%)
                                            0.0000  0.4986 -0.4454  0.5053  0.5456
                ( 48.23%)   0.6945* H  26 s(100.00%)
                                            1.0000
    27. (1.99448) BD ( 1) C  10 - H  27  
                ( 51.82%)   0.7199* C  10 s( 24.67%)p 3.05( 75.33%)
                                            0.0000  0.4967  0.4945  0.4976 -0.5111
                ( 48.18%)   0.6941* H  27 s(100.00%)
                                            1.0000
    28. (1.99437) BD ( 1) C  10 - H  28  
                ( 51.89%)   0.7204* C  10 s( 24.66%)p 3.06( 75.34%)
                                            0.0000  0.4966 -0.5564 -0.4487 -0.4925
                ( 48.11%)   0.6936* H  28 s(100.00%)
                                            1.0000
    29. (1.99452) BD ( 1) C  11 - H  29  
                ( 51.89%)   0.7204* C  11 s( 24.69%)p 3.05( 75.31%)
                                            0.0000  0.4969  0.4725 -0.6518  0.3242
                ( 48.11%)   0.6936* H  29 s(100.00%)
                                            1.0000
    30. (1.99427) BD ( 1) C  11 - H  30  
                ( 51.85%)   0.7201* C  11 s( 24.65%)p 3.06( 75.35%)
                                            0.0000  0.4965 -0.5531 -0.3158 -0.5898
                ( 48.15%)   0.6939* H  30 s(100.00%)
                                            1.0000
    31. (1.99565) BD ( 1) C  11 - H  31  
                ( 51.80%)   0.7197* C  11 s( 24.87%)p 3.02( 75.13%)
                                            0.0000  0.4987 -0.4487  0.3736  0.6406
                ( 48.20%)   0.6943* H  31 s(100.00%)
                                            1.0000
    32. (1.99997) CR ( 1) C   1           s(100.00%)
                                            1.0000  0.0000  0.0001  0.0000  0.0000
    33. (1.99997) CR ( 1) C   2           s(100.00%)
                                            1.0000  0.0000  0.0000  0.0000  0.0000
    34. (1.99988) CR ( 1) C   3           s(100.00%)
                                            1.0000  0.0000  0.0001  0.0001  0.0000
    35. (1.99995) CR ( 1) C   4           s(100.00%)
                                            1.0000  0.0000  0.0000  0.0000  0.0001
    36. (1.99995) CR ( 1) C   5           s(100.00%)
                                            1.0000  0.0000  0.0000  0.0000  0.0000
    37. (1.99996) CR ( 1) C   6           s(100.00%)
                                            1.0000  0.0000  0.0000 -0.0001  0.0000
    38. (1.99995) CR ( 1) C   7           s(100.00%)
                                            1.0000 -0.0001  0.0000  0.0000 -0.0001
    39. (1.99999) CR ( 1) O   8           s(100.00%)
                                            1.0000  0.0000  0.0000  0.0000  0.0000
    40. (1.99996) CR ( 1) C   9           s(100.00%)
                                            1.0000  0.0000 -0.0001  0.0000  0.0000
    41. (1.99997) CR ( 1) C  10           s(100.00%)
                                            1.0000  0.0000 -0.0001  0.0000 -0.0001
    42. (1.99997) CR ( 1) C  11           s(100.00%)
                                            1.0000  0.0000 -0.0001 -0.0001  0.0000
    43. (1.99334) LP ( 1) O   8           s( 66.74%)p 0.50( 33.26%)
                                            0.0000  0.8169  0.5614 -0.0024  0.1318
    44. (1.97586) LP ( 2) O   8           s(  0.36%)p99.99( 99.64%)
                                            0.0000  0.0602  0.0624  0.7758 -0.6250
    45. (0.00988) BD*( 1) C   1 - C   2  
                ( 49.01%)   0.7000* C   1 s( 25.77%)p 2.88( 74.23%)
                                           -0.0001 -0.5076  0.5866 -0.3910 -0.4952
                ( 50.99%)  -0.7141* C   2 s( 25.14%)p 2.98( 74.86%)
                                            0.0000 -0.5014 -0.5690  0.4009  0.5139
    46. (0.00511) BD*( 1) C   1 - H  12  
                ( 48.17%)   0.6940* C   1 s( 24.74%)p 3.04( 75.26%)
                                            0.0000 -0.4974 -0.4729  0.5455 -0.4810
                ( 51.83%)  -0.7199* H  12 s(100.00%)
                                           -1.0000
    47. (0.00606) BD*( 1) C   1 - H  13  
                ( 48.28%)   0.6948* C   1 s( 24.77%)p 3.04( 75.23%)
                                            0.0000 -0.4977  0.3974  0.4455  0.6292
                ( 51.72%)  -0.7192* H  13 s(100.00%)
                                           -1.0000
    48. (0.00517) BD*( 1) C   1 - H  14  
                ( 48.16%)   0.6939* C   1 s( 24.72%)p 3.05( 75.28%)
                                            0.0000 -0.4972 -0.5237 -0.5925  0.3571
                ( 51.84%)  -0.7200* H  14 s(100.00%)
                                           -1.0000
    49. (0.01599) BD*( 1) C   2 - C   6  
                ( 50.50%)   0.7106* C   2 s( 25.06%)p 2.99( 74.94%)
                                            0.0000  0.5006 -0.5207 -0.5852  0.3685
                ( 49.50%)  -0.7036* C   6 s( 25.36%)p 2.94( 74.64%)
                                            0.0001  0.5036  0.4991  0.5901 -0.3861
    50. (0.01613) BD*( 1) C   2 - C   7  
                ( 50.74%)   0.7123* C   2 s( 25.05%)p 2.99( 74.95%)
                                            0.0000  0.5005 -0.4728  0.5544 -0.4676
                ( 49.26%)  -0.7019* C   7 s( 25.19%)p 2.97( 74.81%)
                                            0.0001  0.5019  0.4423 -0.5724  0.4742
    51. (0.01145) BD*( 1) C   2 - H  15  
                ( 48.48%)   0.6963* C   2 s( 24.75%)p 3.04( 75.25%)
                                            0.0000 -0.4975 -0.4261 -0.4353 -0.6176
                ( 51.52%)  -0.7178* H  15 s(100.00%)
                                           -1.0000
    52. (0.03280) BD*( 1) C   3 - C   5  
                ( 50.05%)   0.7074* C   3 s( 25.78%)p 2.88( 74.22%)
                                            0.0001  0.5078 -0.5165 -0.5932  0.3513
                ( 49.95%)  -0.7068* C   5 s( 24.97%)p 3.00( 75.03%)
                                            0.0000  0.4997  0.5163  0.5712 -0.3969
    53. (0.02151) BD*( 1) C   3 - C   7  
                ( 49.93%)   0.7066* C   3 s( 26.49%)p 2.77( 73.51%)
                                            0.0000 -0.5147 -0.6344  0.3726  0.4403
                ( 50.07%)  -0.7076* C   7 s( 25.06%)p 2.99( 74.94%)
                                           -0.0001 -0.5006  0.6294 -0.3503 -0.4801
    54. (0.02180) BD*( 1) C   3 - O   8  
                ( 59.00%)   0.7681* C   3 s( 21.87%)p 3.57( 78.13%)
                                           -0.0001  0.4676  0.3548  0.4782  0.6533
                ( 41.00%)  -0.6403* O   8 s( 16.22%)p 5.17( 83.78%)
                                            0.0000  0.4027 -0.4410 -0.5007 -0.6266
    55. (0.02286) BD*( 1) C   3 - H  16  
                ( 49.36%)   0.7026* C   3 s( 25.86%)p 2.87( 74.14%)
                                            0.0000 -0.5085  0.4526 -0.5297  0.5059
                ( 50.64%)  -0.7116* H  16 s(100.00%)
                                           -1.0000
    56. (0.01660) BD*( 1) C   4 - C   5  
                ( 49.86%)   0.7061* C   4 s( 25.31%)p 2.95( 74.69%)
                                           -0.0001 -0.5031  0.4805 -0.5229  0.4926
                ( 50.14%)  -0.7081* C   5 s( 24.99%)p 3.00( 75.01%)
                                            0.0000 -0.4999 -0.4831  0.5664 -0.4426
    57. (0.01174) BD*( 1) C   4 - C   6  
                ( 49.96%)   0.7069* C   4 s( 25.30%)p 2.95( 74.70%)
                                            0.0000 -0.5030 -0.6122  0.3748  0.4813
                ( 50.04%)  -0.7074* C   6 s( 25.19%)p 2.97( 74.81%)
                                            0.0000 -0.5019  0.6227 -0.3944 -0.4526
    58. (0.01003) BD*( 1) C   4 - H  17  
                ( 48.52%)   0.6966* C   4 s( 25.05%)p 2.99( 74.95%)
                                            0.0000 -0.5005  0.5029  0.6078 -0.3566
                ( 51.48%)  -0.7175* H  17 s(100.00%)
                                           -1.0000
    59. (0.00922) BD*( 1) C   4 - H  18  
                ( 48.35%)   0.6954* C   4 s( 24.34%)p 3.11( 75.66%)
                                            0.0000 -0.4933 -0.3760 -0.4655 -0.6313
                ( 51.65%)  -0.7187* H  18 s(100.00%)
                                           -1.0000
    60. (0.02229) BD*( 1) C   5 - C   9  
                ( 49.99%)   0.7070* C   5 s( 25.53%)p 2.92( 74.47%)
                                           -0.0001 -0.5052  0.4766  0.4181  0.5855
                ( 50.01%)  -0.7072* C   9 s( 25.41%)p 2.94( 74.59%)
                                           -0.0001 -0.5041 -0.4967 -0.4098 -0.5756
    61. (0.01230) BD*( 1) C   5 - H  19  
                ( 49.39%)   0.7028* C   5 s( 24.51%)p 3.08( 75.49%)
                                            0.0000 -0.4951  0.5225 -0.4220 -0.5511
                ( 50.61%)  -0.7114* H  19 s(100.00%)
                                           -1.0000
    62. (0.01075) BD*( 1) C   6 - H  20  
                ( 48.74%)   0.6982* C   6 s( 24.70%)p 3.05( 75.30%)
                                            0.0000 -0.4970  0.3604  0.5123  0.6006
                ( 51.26%)  -0.7159* H  20 s(100.00%)
                                           -1.0000
    63. (0.00834) BD*( 1) C   6 - H  21  
                ( 48.58%)   0.6970* C   6 s( 24.74%)p 3.04( 75.26%)
                                            0.0000 -0.4974 -0.4830  0.4835 -0.5343
                ( 51.42%)  -0.7171* H  21 s(100.00%)
                                           -1.0000
    64. (0.00927) BD*( 1) C   7 - H  22  
                ( 48.52%)   0.6966* C   7 s( 24.94%)p 3.01( 75.06%)
                                            0.0000 -0.4994  0.3479  0.3990  0.6858
                ( 51.48%)  -0.7175* H  22 s(100.00%)
                                           -1.0000
    65. (0.00834) BD*( 1) C   7 - H  23  
                ( 48.16%)   0.6940* C   7 s( 24.80%)p 3.03( 75.20%)
                                            0.0000 -0.4980 -0.5358 -0.6249  0.2727
                ( 51.84%)  -0.7200* H  23 s(100.00%)
                                           -1.0000
    66. (0.00740) BD*( 1) O   8 - H  24  
                ( 40.65%)   0.6376* O   8 s( 16.68%)p 5.00( 83.32%)
                                            0.0000  0.4084 -0.6974  0.3841  0.4464
                ( 59.35%)  -0.7704* H  24 s(100.00%)
                                            1.0000
    67. (0.01022) BD*( 1) C   9 - C  10  
                ( 51.04%)   0.7144* C   9 s( 24.84%)p 3.03( 75.16%)
                                            0.0000  0.4984 -0.4901  0.5761 -0.4237
                ( 48.96%)  -0.6997* C  10 s( 25.81%)p 2.87( 74.19%)
                                            0.0001  0.5080  0.4975 -0.5438  0.4457
    68. (0.01017) BD*( 1) C   9 - C  11  
                ( 50.92%)   0.7136* C   9 s( 24.95%)p 3.01( 75.05%)
                                            0.0000  0.4995 -0.5118 -0.5675  0.4081
                ( 49.08%)  -0.7005* C  11 s( 25.79%)p 2.88( 74.21%)
                                            0.0001  0.5078  0.5191  0.5796 -0.3697
    69. (0.01234) BD*( 1) C   9 - H  25  
                ( 48.92%)   0.6994* C   9 s( 24.80%)p 3.03( 75.20%)
                                            0.0000 -0.4980 -0.5012  0.4222  0.5680
                ( 51.08%)  -0.7147* H  25 s(100.00%)
                                           -1.0000
    70. (0.00583) BD*( 1) C  10 - H  26  
                ( 48.23%)   0.6945* C  10 s( 24.86%)p 3.02( 75.14%)
                                            0.0000 -0.4986  0.4454 -0.5053 -0.5456
                ( 51.77%)  -0.7195* H  26 s(100.00%)
                                           -1.0000
    71. (0.00592) BD*( 1) C  10 - H  27  
                ( 48.18%)   0.6941* C  10 s( 24.67%)p 3.05( 75.33%)
                                            0.0000 -0.4967 -0.4945 -0.4976  0.5111
                ( 51.82%)  -0.7199* H  27 s(100.00%)
                                           -1.0000
    72. (0.00530) BD*( 1) C  10 - H  28  
                ( 48.11%)   0.6936* C  10 s( 24.66%)p 3.06( 75.34%)
                                            0.0000 -0.4966  0.5564  0.4487  0.4925
[...]
    6       0.8688       -7.7800       8.6488        -7.0742       7.9430
    9       3.0447       -7.2915      10.3361        -4.1449       7.1896
   10       0.1498       -0.4317       0.5815        -1.3066       1.4564
   20       6.0740       -4.9660      11.0399        -4.9278      11.0018
   21       5.3403       -0.1876       5.5279        -5.8144      11.1547
   38     200.0104       -0.0016     200.0120         0.0024     200.0080
 Sum      215.3967      -22.8571     238.2538       -25.1340     240.5307

 Contributions to Isotropic shielding for atom    8 (   353.2605 ppm):
                         Standard Origin              Atomic Origin
 NLMO      Total    Paramagnetic  Diamagnetic   Paramagnetic  Diamagnetic
   10      25.9805        8.4301      17.5503        15.3529      10.6275
   11      -0.4103       -0.6199       0.2096        -1.7467       1.3364
   17      -0.5727       -0.7927       0.2200        -1.4918       0.9191
   21      -0.1231       -0.4905       0.3675        -1.0302       0.9071
   22      19.6621        9.2899      10.3723         5.2826      14.3795
   39     271.1713       -0.0061     271.1774        -0.0036     271.1749
   43      33.6217       -0.9183      34.5400        -3.8777      37.4994
   44       3.3528      -34.7628      38.1156       -36.6085      39.9613
 Sum      352.6824      -19.8703     372.5527       -24.1229     376.8052

 Contributions to Isotropic shielding for atom    9 (   215.2055 ppm):
                         Standard Origin              Atomic Origin
 NLMO      Total    Paramagnetic  Diamagnetic   Paramagnetic  Diamagnetic
   16       4.6260       -8.8383      13.4643        -3.1618       7.7878
   23      -1.0378       -4.7527       3.7149        -8.5088       7.4710
   24      -1.6140       -4.8162       3.2021        -9.1440       7.5299
   25       7.5642       -5.1412      12.7054        -3.3845      10.9487
   26       0.9263       -0.3509       1.2773        -0.1379       1.0643
   27       0.7171       -0.6035       1.3206        -0.2709       0.9880
   29       0.7541       -0.5797       1.3338        -0.2362       0.9903
   31       0.9623       -0.3591       1.3214        -0.1061       1.0684
   40     199.9200        0.0006     199.9194         0.0000     199.9199
 Sum      212.8181      -25.4410     238.2591       -24.9501     237.7682

 Contributions to Isotropic shielding for atom   10 (   221.6004 ppm):
                         Standard Origin              Atomic Origin
 NLMO      Total    Paramagnetic  Diamagnetic   Paramagnetic  Diamagnetic
   23       4.4940      -10.9725      15.4666        -3.5211       8.0152
   24      -0.4936        0.1976      -0.6912        -1.2248       0.7312
   25       0.3480       -0.2043       0.5524        -0.6925       1.0405
   26       5.6546       -2.0037       7.6583        -5.4663      11.1209
   27       6.4663       -5.1372      11.6035        -4.6307      11.0970
   28       4.9128        1.1576       3.7552        -6.2181      11.1309
   30      -0.2531       -0.9520       0.6990        -1.2187       0.9656
   41     200.0748       -0.0035     200.0783         0.0022     200.0726
 Sum      221.2040      -17.9181     239.1220       -22.9702     244.1741

 Contributions to Isotropic shielding for atom   11 (   221.4590 ppm):
                         Standard Origin              Atomic Origin
 NLMO      Total    Paramagnetic  Diamagnetic   Paramagnetic  Diamagnetic
   23      -0.5156        0.2243      -0.7399        -1.2355       0.7199
   24       4.7256      -11.1479      15.8735        -3.2362       7.9618
   25       0.3448       -0.1638       0.5086        -0.6958       1.0406
   28      -0.2512       -0.8716       0.6204        -1.2179       0.9667
   29       6.2976       -4.8117      11.1094        -4.8282      11.1259
   30       4.8418        1.1127       3.7291        -6.2752      11.1170
   31       5.6264       -1.9568       7.5831        -5.5077      11.1341
   42     200.0745       -0.0038     200.0783         0.0023     200.0722
 Sum      221.1439      -17.6186     238.7625       -22.9942     244.1381

 Contributions to Isotropic shielding for atom   12 (    32.3908 ppm):
                         Standard Origin              Atomic Origin
 NLMO      Total    Paramagnetic  Diamagnetic   Paramagnetic  Diamagnetic
    1       1.3694       -0.3006       1.6700         0.3565       1.0129
    2      26.3530        0.1301      26.2229         0.4348      25.9182
    3       1.9547        1.2831       0.6716         0.1224       1.8324
    4       1.9144        2.2872      -0.3728         0.0759       1.8385
    5      -0.1284        0.6101      -0.7385        -1.0451       0.9167
 Sum       31.4632        4.0098      27.4534        -0.0555      31.5187

 Contributions to Isotropic shielding for atom   13 (    32.7170 ppm):
                         Standard Origin              Atomic Origin
 NLMO      Total    Paramagnetic  Diamagnetic   Paramagnetic  Diamagnetic
    1       1.6673       -1.2795       2.9469         0.7673       0.9001
    2       1.9679        1.6004       0.3675         0.1411       1.8268
    3      26.3861        0.3291      26.0570         0.4161      25.9701
    4       1.9808        1.4983       0.4825         0.1554       1.8253
 Sum       32.0021        2.1483      29.8538         1.4798      30.5223

 Contributions to Isotropic shielding for atom   14 (    32.3718 ppm):
                         Standard Origin              Atomic Origin
 NLMO      Total    Paramagnetic  Diamagnetic   Paramagnetic  Diamagnetic
    1       1.3917       -0.3872       1.7789         0.3817       1.0100
    2       1.9089        2.3133      -0.4044         0.0676       1.8413
    3       1.9612        1.2075       0.7538         0.1290       1.8323
    4      26.3430        0.1479      26.1951         0.4301      25.9130
    6      -0.1087        0.5657      -0.6744        -1.0316       0.9230
 Sum       31.4962        3.8472      27.6490        -0.0233      31.5195

 Contributions to Isotropic shielding for atom   15 (    32.1793 ppm):
                         Standard Origin              Atomic Origin
 NLMO      Total    Paramagnetic  Diamagnetic   Paramagnetic  Diamagnetic
    1       0.7769        2.2038      -1.4268        -0.1807       0.9576
    5       1.3815        0.5969       0.7846         0.4864       0.8951
    6       1.3893        0.4491       0.9402         0.4966       0.8927
    7      26.2582       -0.0284      26.2865         0.4320      25.8262
   10       0.1250       -0.4531       0.5781        -1.2516       1.3766
   43      -0.6088        0.1237      -0.7325         0.5051      -1.1139
 Sum       29.3221        2.8921      26.4300         0.4877      28.8344

 Contributions to Isotropic shielding for atom   16 (    31.8462 ppm):
                         Standard Origin              Atomic Origin
 NLMO      Total    Paramagnetic  Diamagnetic   Paramagnetic  Diamagnetic
    9       0.8590        0.4442       0.4147        -0.3305       1.1895
   10       0.4858        1.4197      -0.9339        -1.1656       1.6514
   11      26.7661        0.3001      26.4660         0.7625      26.0037
   22       0.2974       -0.7209       1.0183        -0.6680       0.9654
   23       0.0197       -0.6348       0.6545        -1.0294       1.0491
   27      -0.3984       -1.4103       1.0119        -1.0257       0.6273
 Sum       28.0296       -0.6018      28.6315        -3.4567      31.4864

 Contributions to Isotropic shielding for atom   17 (    32.4218 ppm):
                         Standard Origin              Atomic Origin
 NLMO      Total    Paramagnetic  Diamagnetic   Paramagnetic  Diamagnetic
   12       1.2959        0.5288       0.7671         0.4001       0.8958
   13       1.1080        0.9956       0.1124         0.0983       1.0096
   14      26.4395        0.0334      26.4061         0.4468      25.9927
   15       2.0308        1.6104       0.4204         0.2073       1.8235
   24       0.0168       -0.6041       0.6209        -1.0315       1.0483
   29      -0.3834       -1.4086       1.0253        -1.0411       0.6578
 Sum       30.5075        1.1555      29.3520        -0.9202      31.4277

 Contributions to Isotropic shielding for atom   18 (    32.1951 ppm):
                         Standard Origin              Atomic Origin
 NLMO      Total    Paramagnetic  Diamagnetic   Paramagnetic  Diamagnetic
   10       0.0717       -0.5139       0.5856        -1.1633       1.2351
   12       1.3604        0.3726       0.9878         0.3757       0.9847
   13       1.1427        0.8465       0.2962         0.1582       0.9845
   14       1.9701        1.6102       0.3599         0.1390       1.8311
   15      26.2958        0.0681      26.2277         0.4171      25.8787
 Sum       30.8407        2.3835      28.4572        -0.0735      30.9142

 Contributions to Isotropic shielding for atom   19 (    33.1442 ppm):
                         Standard Origin              Atomic Origin
 NLMO      Total    Paramagnetic  Diamagnetic   Paramagnetic  Diamagnetic
    8       1.2504        1.1362       0.1142         0.3286       0.9218
   10      -0.0981       -0.0950      -0.0031        -1.3051       1.2070
   12       1.1609        1.1673      -0.0064         0.0131       1.1478
   15       0.1754       -0.2689       0.4443        -0.8342       1.0096
   16       1.0023        1.3183      -0.3160         0.0025       0.9999
   17      26.7081       -0.0024      26.7105         0.4822      26.2259
   22      -0.0586       -1.2246       1.1660        -0.7702       0.7116
   26      -0.0768       -1.2130       1.1362        -0.9577       0.8809
   31      -0.0696       -1.2532       1.1836        -0.9519       0.8823
 Sum       29.9940       -0.4352      30.4292        -3.9928      33.9869

 Contributions to Isotropic shielding for atom   20 (    32.8580 ppm):
                         Standard Origin              Atomic Origin
 NLMO      Total    Paramagnetic  Diamagnetic   Paramagnetic  Diamagnetic
    3      -0.0511       -1.1712       1.1201        -0.9521       0.9010
    5       1.3184        0.4645       0.8539         0.4665       0.8520
   13       1.3346        0.0340       1.3006         0.4188       0.9158
   18      26.5049        0.2182      26.2867         0.4010      26.1039
   19       1.9781        1.7075       0.2706         0.2145       1.7637
 Sum       31.0850        1.2530      29.8320         0.5487      30.5363

 Contributions to Isotropic shielding for atom   21 (    32.4533 ppm):
                         Standard Origin              Atomic Origin
 NLMO      Total    Paramagnetic  Diamagnetic   Paramagnetic  Diamagnetic
    2      -0.0888       -1.3044       1.2156        -0.9688       0.8800
    5       1.0509        1.2694      -0.2185         0.0983       0.9527
   13       1.1654        1.0194       0.1461         0.1566       1.0088
   15       0.2085        0.0593       0.1492        -0.7959       1.0044
   18       2.0705        1.3399       0.7306         0.3092       1.7613
   19      26.4629       -0.0259      26.4888         0.4576      26.0053
 Sum       30.8694        2.3577      28.5117        -0.7431      31.6125

 Contributions to Isotropic shielding for atom   22 (    32.7748 ppm):
                         Standard Origin              Atomic Origin
 NLMO      Total    Paramagnetic  Diamagnetic   Paramagnetic  Diamagnetic
    3      -0.0505       -1.2177       1.1672        -0.9526       0.9021
    6       1.2657        0.5615       0.7041         0.3711       0.8946
    9       1.4382        0.2117       1.2265         0.6277       0.8106
   20      26.3636        0.2260      26.1376         0.4001      25.9636
   21       2.0031        1.5760       0.4272         0.2273       1.7758
 Sum       31.0202        1.3575      29.6627         0.6735      30.3467

 Contributions to Isotropic shielding for atom   23 (    32.0030 ppm):
                         Standard Origin              Atomic Origin
 NLMO      Total    Paramagnetic  Diamagnetic   Paramagnetic  Diamagnetic
    4      -0.0908       -1.3457       1.2549        -0.9728       0.8820
    6       1.0173        1.3268      -0.3095        -0.0384       1.0558
    9       1.1524        1.0192       0.1332         0.2268       0.9256
   10       0.0711       -0.0795       0.1505        -1.5671       1.6382
   20       2.0792        1.2272       0.8520         0.3253       1.7539
   21      26.1919        0.0149      26.1770         0.4397      25.7522
 Sum       30.4210        2.1629      28.2581        -1.5865      32.0075

 Contributions to Isotropic shielding for atom   24 (    35.0954 ppm):
                         Standard Origin              Atomic Origin
 NLMO      Total    Paramagnetic  Diamagnetic   Paramagnetic  Diamagnetic
    8      -0.1027        0.1787      -0.2814        -1.0698       0.9671
   10       1.6394        1.9022      -0.2628         0.9119       0.7276
   11       0.1800        0.3274      -0.1474        -0.8554       1.0354
   22      23.1222       -0.4180      23.5402        -0.1199      23.2421
   43       4.0128        1.0405       2.9723         2.0693       1.9435
   44       5.5107        2.4600       3.0506         2.3403       3.1704
 Sum       34.3624        5.4909      28.8715         3.2764      31.0860

 Contributions to Isotropic shielding for atom   25 (    32.7255 ppm):
                         Standard Origin              Atomic Origin
 NLMO      Total    Paramagnetic  Diamagnetic   Paramagnetic  Diamagnetic
   16       1.6950       -0.4924       2.1874         0.7530       0.9420
   23       1.0568        1.1206      -0.0638         0.0577       0.9991
   24       1.0145        1.1994      -0.1850         0.0036       1.0108
   25      26.3989        0.1617      26.2372         0.3393      26.0595
   27       0.2004       -0.9277       1.1281        -0.7735       0.9740
   29       0.2052       -0.9604       1.1657        -0.7697       0.9749
 Sum       30.5708        0.1012      30.4696        -0.3896      30.9604

 Contributions to Isotropic shielding for atom   26 (    32.7870 ppm):
                         Standard Origin              Atomic Origin
 NLMO      Total    Paramagnetic  Diamagnetic   Paramagnetic  Diamagnetic
   23       1.4326       -0.3899       1.8226         0.4777       0.9550
   26      26.3698        0.2163      26.1534         0.4306      25.9392
   27       2.0662        0.8823       1.1839         0.2753       1.7909
   28       1.9155        2.2454      -0.3299         0.1023       1.8132
 Sum       31.7841        2.9540      28.8300         1.2859      30.4982

 Contributions to Isotropic shielding for atom   27 (    32.5269 ppm):
                         Standard Origin              Atomic Origin
 NLMO      Total    Paramagnetic  Diamagnetic   Paramagnetic  Diamagnetic
    8      -0.0653        0.0824      -0.1477        -1.0313       0.9660
   23       1.5376       -1.1566       2.6942         0.5219       1.0157
   26       2.0172        1.0150       1.0022         0.1866       1.8306
   27      26.3423        0.2818      26.0605         0.3856      25.9567
   28       1.8692        1.5888       0.2803        -0.0327       1.9018
 Sum       31.7009        1.8114      29.8896         0.0301      31.6708

 Contributions to Isotropic shielding for atom   28 (    32.5874 ppm):
                         Standard Origin              Atomic Origin
 NLMO      Total    Paramagnetic  Diamagnetic   Paramagnetic  Diamagnetic
   23       1.3123        0.1853       1.1270         0.3208       0.9915
   24      -0.2069        0.6621      -0.8690        -1.2861       1.0792
   26       1.9131        2.0341      -0.1210         0.0620       1.8511
   27       2.0131        1.3939       0.6192         0.1312       1.8819
   28      26.3272        0.0372      26.2901         0.4522      25.8750
   30      -0.1571       -1.0647       0.9076        -1.0219       0.8648
 Sum       31.2017        3.2479      27.9538        -1.3418      32.5435

 Contributions to Isotropic shielding for atom   29 (    32.3533 ppm):
                         Standard Origin              Atomic Origin
 NLMO      Total    Paramagnetic  Diamagnetic   Paramagnetic  Diamagnetic
   12      -0.0893        0.0830      -0.1723        -1.0695       0.9801
   24       1.5345       -1.1614       2.6960         0.5229       1.0116
   29      26.3086        0.2693      26.0393         0.3935      25.9150
   30       1.8546        1.6539       0.2007        -0.0452       1.8998
   31       2.0092        1.0930       0.9161         0.1772       1.8320
 Sum       31.6175        1.9378      29.6798        -0.0210      31.6386

 Contributions to Isotropic shielding for atom   30 (    32.5782 ppm):
                         Standard Origin              Atomic Origin
 NLMO      Total    Paramagnetic  Diamagnetic   Paramagnetic  Diamagnetic
   23      -0.2196        0.7073      -0.9270        -1.2947       1.0750
   24       1.3424        0.0936       1.2488         0.3612       0.9812
   28      -0.1570       -0.9737       0.8168        -1.0206       0.8637
   29       2.0023        1.4771       0.5252         0.1170       1.8853
   30      26.3437        0.0406      26.3031         0.4472      25.8964
   31       1.9108        2.0466      -0.1359         0.0573       1.8535
 Sum       31.2225        3.3915      27.8310        -1.3327      32.5552

 Contributions to Isotropic shielding for atom   31 (    32.7049 ppm):
                         Standard Origin              Atomic Origin
 NLMO      Total    Paramagnetic  Diamagnetic   Paramagnetic  Diamagnetic
   24       1.4480       -0.4692       1.9172         0.5016       0.9464
   29       2.0558        0.9796       1.0761         0.2632       1.7926
   30       1.9083        2.2529      -0.3445         0.0952       1.8131
   31      26.3533        0.2187      26.1346         0.4317      25.9216
 Sum       31.7654        2.9820      28.7834         1.2916      30.4738
 
 1\1\GINC-COMPUTE-10-4\SP\RHF\STO-3G\C10H20O1\YTSAI.IQUIR\03-Aug-2021\0
 \\# rhf/STO-3G nmr pop=nbo\\comment\\0,1\C,0,-2.087206688,-1.354414709
 ,-2.266500653\C,0,-1.589353827,-1.114292278,-0.841957107\C,0,0.4304750
 92,-1.302099721,0.703126172\C,0,-1.133218521,0.652130052,0.916923692\C
 ,0,0.340392742,0.203793503,1.049162188\C,0,-1.711272933,0.368978474,-0
 .469052264\C,0,-0.145688051,-1.618617757,-0.6802672\O,0,-0.301882011,-
 2.060041213,1.671235833\C,0,1.328544865,1.084720818,0.219736251\C,0,2.
 787154766,0.645983021,0.410101125\C,0,1.222754392,2.572147018,0.583508
 616\H,0,-3.128147117,-1.031591209,-2.373474198\H,0,-1.485050672,-0.803
 761266,-2.9971539\H,0,-2.038558823,-2.418514157,-2.520487473\H,0,-2.23
 4127556,-1.689875893,-0.164401836\H,0,1.460315461,-1.664856633,0.75730
 9488\H,0,-1.250017249,1.713043207,1.15790809\H,0,-1.7377192,0.12008453
 ,1.663485227\H,0,0.604069314,0.321581636,2.109910085\H,0,-1.205666985,
 0.99121961,-1.217016719\H,0,-2.767435262,0.664784589,-0.48266589\H,0,0
 .493550374,-1.180445531,-1.455883225\H,0,-0.13685035,-2.705110445,-0.8
 34982297\H,0,0.088835606,-1.87584373,2.542389948\H,0,1.098641117,0.994
 282554,-0.84819748\H,0,3.055845914,0.612886329,1.471229416\H,0,2.97024
 8777,-0.340733191,-0.02452953\H,0,3.472990979,1.339031711,-0.089784594
 \H,0,0.261224284,2.993152152,0.276068489\H,0,1.996536327,3.156232445,0
 .072949708\H,0,1.340615235,2.726146084,1.661310037\\Version=EM64L-G09R
 evC.01\State=1-A\HF=-459.6202617\RMSD=7.380e-09\Dipole=0.3718942,0.350
 2847,0.0917029\Quadrupole=0.1103682,-2.1411027,2.0307345,-1.2291496,0.
 9039517,0.3725917\PG=C01 [X(C10H20O1)]\\@


 A SOLDIER'S LIFE IS A LIFE OF HONOR, BUT A DOG WOULD NOT LEAD IT.
 -- PRINCE RUPERT, FOUNDER OF THE HUDSON'S BAY COMPANY
 Job cpu time:  0 days  0 hours  0 minutes 28.6 seconds.
 File lengths (MBytes):  RWF=      5 Int=      0 D2E=      0 Chk=      1 Scr=      1
 Normal termination of Gaussian 09 at Tue Aug  3 16:36:12 2021.
