 Entering Gaussian System, Link 0=g09
 Input=/home/ytsai.iquir/menthol/03_menthol_M0037_MMFF_NMR_rhf_STO-3G_nbo.gjc
 Output=/home/ytsai.iquir/menthol/03_menthol_M0037_MMFF_NMR_rhf_STO-3G_nbo.log
 Initial command:
 /share/apps/Gaussian09/EM64T.SSE4.2-enabled/g09/l1.exe /tmp/Gau-9382.inp -scrdir=/tmp/
 Entering Link 1 = /share/apps/Gaussian09/EM64T.SSE4.2-enabled/g09/l1.exe PID=      9383.
  
 Copyright (c) 1988,1990,1992,1993,1995,1998,2003,2009,2011,
            Gaussian, Inc.  All Rights Reserved.
  
 This is part of the Gaussian(R) 09 program.  It is based on
 the Gaussian(R) 03 system (copyright 2003, Gaussian, Inc.),
 the Gaussian(R) 98 system (copyright 1998, Gaussian, Inc.),
 the Gaussian(R) 94 system (copyright 1995, Gaussian, Inc.),
 the Gaussian 92(TM) system (copyright 1992, Gaussian, Inc.),
 the Gaussian 90(TM) system (copyright 1990, Gaussian, Inc.),
 the Gaussian 88(TM) system (copyright 1988, Gaussian, Inc.),
 the Gaussian 86(TM) system (copyright 1986, Carnegie Mellon
 University), and the Gaussian 82(TM) system (copyright 1983,
 Carnegie Mellon University). Gaussian is a federally registered
 trademark of Gaussian, Inc.
  
 This software contains proprietary and confidential information,
 including trade secrets, belonging to Gaussian, Inc.
  
 This software is provided under written license and may be
 used, copied, transmitted, or stored only in accord with that
 written license.
  
 The following legend is applicable only to US Government
 contracts under FAR:
  
                    RESTRICTED RIGHTS LEGEND
  
 Use, reproduction and disclosure by the US Government is
 subject to restrictions as set forth in subparagraphs (a)
 and (c) of the Commercial Computer Software - Restricted
 Rights clause in FAR 52.227-19.
  
 Gaussian, Inc.
 340 Quinnipiac St., Bldg. 40, Wallingford CT 06492
  
  
 ---------------------------------------------------------------
 Warning -- This program may not be used in any manner that
 competes with the business of Gaussian, Inc. or will provide
 assistance to any competitor of Gaussian, Inc.  The licensee
 of this program is prohibited from giving any competitor of
 Gaussian, Inc. access to this program.  By using this program,
 the user acknowledges that Gaussian, Inc. is engaged in the
 business of creating and licensing software in the field of
 computational chemistry and represents and warrants to the
 licensee that it is not a competitor of Gaussian, Inc. and that
 it will not use this program in any manner prohibited above.
 ---------------------------------------------------------------
  

 Cite this work as:
 Gaussian 09, Revision C.01,
 M. J. Frisch, G. W. Trucks, H. B. Schlegel, G. E. Scuseria, 
 M. A. Robb, J. R. Cheeseman, G. Scalmani, V. Barone, B. Mennucci, 
 G. A. Petersson, H. Nakatsuji, M. Caricato, X. Li, H. P. Hratchian, 
 A. F. Izmaylov, J. Bloino, G. Zheng, J. L. Sonnenberg, M. Hada, 
 M. Ehara, K. Toyota, R. Fukuda, J. Hasegawa, M. Ishida, T. Nakajima, 
 Y. Honda, O. Kitao, H. Nakai, T. Vreven, J. A. Montgomery, Jr., 
 J. E. Peralta, F. Ogliaro, M. Bearpark, J. J. Heyd, E. Brothers, 
 K. N. Kudin, V. N. Staroverov, T. Keith, R. Kobayashi, J. Normand, 
 K. Raghavachari, A. Rendell, J. C. Burant, S. S. Iyengar, J. Tomasi, 
 M. Cossi, N. Rega, J. M. Millam, M. Klene, J. E. Knox, J. B. Cross, 
 V. Bakken, C. Adamo, J. Jaramillo, R. Gomperts, R. E. Stratmann, 
 O. Yazyev, A. J. Austin, R. Cammi, C. Pomelli, J. W. Ochterski, 
 R. L. Martin, K. Morokuma, V. G. Zakrzewski, G. A. Voth, 
 P. Salvador, J. J. Dannenberg, S. Dapprich, A. D. Daniels, 
 O. Farkas, J. B. Foresman, J. V. Ortiz, J. Cioslowski, 
 and D. J. Fox, Gaussian, Inc., Wallingford CT, 2010.
 
 ******************************************
 Gaussian 09:  EM64L-G09RevC.01 23-Sep-2011
                 3-Aug-2021 
 ******************************************
 %nprocshared=4
 Will use up to    4 processors via shared memory.
 ------------------------
 # rhf/STO-3G nmr pop=nbo
 ------------------------
 1/38=1/1;
 2/12=2,17=6,18=5,40=1/2;
 3/6=3,11=1,16=1,25=1,30=1,116=1/1,2,8,3;
 4//1;
 5/5=2,38=5/2;
 8/6=1,10=90,11=11/1;
 10/13=100,45=16/2;
 6/7=2,8=2,9=2,10=2,28=1,64=1/1,7;
 99/9=1/99;
 -------
 comment
 -------
 Charge =  0 Multiplicity = 1
 Symbolic Z-Matrix:
 6                    -2.42203  -0.9571   -2.07471 
 6                    -1.76883  -0.76975  -0.70569 
 6                     0.35275  -1.169     0.64899 
 6                    -1.04339   0.93963   1.01629 
 6                     0.34593   0.28243   1.17284 
 6                    -1.72983   0.71168  -0.32603 
 6                    -0.35726  -1.36858  -0.69401 
 8                    -0.31819  -1.97682   1.62626 
 6                     1.51317   1.18843   0.67476 
 6                     1.75071   1.22451  -0.83299 
 6                     2.82967   0.80164   1.36776 
 1                    -1.8554   -0.44601  -2.86051 
 1                    -2.47979  -2.01921  -2.33507 
 1                    -3.44101  -0.55595  -2.07668 
 1                    -2.38383  -1.30198   0.03192 
 1                     1.376    -1.55179   0.58501 
 1                    -0.98407   2.0154    1.21958 
 1                    -1.69943   0.52773   1.79582 
 1                     0.48387   0.22257   2.26398 
 1                    -1.23248   1.29296  -1.10812 
 1                    -2.75403   1.10128  -0.26793 
 1                     0.23329  -0.93383  -1.50594 
 1                    -0.43259  -2.44301  -0.9059 
 1                    -0.26647  -2.901     1.32829 
 1                     1.29147   2.21628   0.9923 
 1                     2.09632   0.25845  -1.21267 
 1                     0.85725   1.52218  -1.38267 
 1                     2.52874   1.95806  -1.07497 
 1                     2.72073   0.82448   2.45719 
 1                     3.62598   1.5064    1.10384 
 1                     3.16274  -0.20007   1.07908 
 
                          Input orientation:                          
 ---------------------------------------------------------------------
 Center     Atomic      Atomic             Coordinates (Angstroms)
 Number     Number       Type             X           Y           Z
 ---------------------------------------------------------------------
      1          6           0       -2.422026   -0.957101   -2.074708
      2          6           0       -1.768828   -0.769749   -0.705693
      3          6           0        0.352751   -1.168996    0.648988
      4          6           0       -1.043393    0.939625    1.016293
      5          6           0        0.345926    0.282435    1.172835
      6          6           0       -1.729826    0.711684   -0.326025
      7          6           0       -0.357257   -1.368578   -0.694013
      8          8           0       -0.318189   -1.976819    1.626264
      9          6           0        1.513174    1.188435    0.674756
     10          6           0        1.750712    1.224507   -0.832985
     11          6           0        2.829673    0.801636    1.367756
     12          1           0       -1.855398   -0.446012   -2.860509
     13          1           0       -2.479793   -2.019213   -2.335071
     14          1           0       -3.441005   -0.555951   -2.076682
     15          1           0       -2.383831   -1.301977    0.031921
     16          1           0        1.376001   -1.551788    0.585006
     17          1           0       -0.984068    2.015404    1.219580
     18          1           0       -1.699435    0.527727    1.795823
     19          1           0        0.483869    0.222569    2.263980
     20          1           0       -1.232482    1.292957   -1.108122
     21          1           0       -2.754030    1.101284   -0.267930
     22          1           0        0.233293   -0.933834   -1.505941
     23          1           0       -0.432588   -2.443012   -0.905902
     24          1           0       -0.266473   -2.901004    1.328293
     25          1           0        1.291467    2.216278    0.992300
     26          1           0        2.096317    0.258453   -1.212668
     27          1           0        0.857251    1.522176   -1.382672
     28          1           0        2.528735    1.958055   -1.074973
     29          1           0        2.720728    0.824481    2.457185
     30          1           0        3.625982    1.506395    1.103838
     31          1           0        3.162742   -0.200068    1.079076
 ---------------------------------------------------------------------
                    Distance matrix (angstroms):
                    1          2          3          4          5
     1  C    0.000000
     2  C    1.528388   0.000000
     3  C    3.893945   2.548658   0.000000
     4  C    3.879754   2.532479   2.555468   0.000000
     5  C    4.443484   3.017970   1.543085   1.544867   0.000000
     6  C    2.514335   1.529808   2.970646   1.524784   2.596071
     7  C    2.517718   1.533383   1.532187   2.953596   2.589485
     8  O    4.377574   2.999900   1.434507   3.066535   2.398098
     9  C    5.258201   4.063454   2.627684   2.591252   1.559290
    10  C    4.869604   4.047274   3.143150   3.362739   2.623784
    11  C    6.521048   5.283432   3.245791   3.891428   2.544910
    12  H    1.095337   2.180718   4.208942   4.196300   4.652347
    13  H    1.095083   2.172902   4.201284   4.695701   5.058426
    14  H    1.095100   2.172901   4.711443   4.189485   5.059951
    15  H    2.135013   1.097984   2.808441   2.791154   3.356132
    16  H    4.674692   3.488186   1.094378   3.499517   2.184255
    17  H    4.664316   3.475572   3.500437   1.096423   2.185006
    18  H    4.208072   2.818838   2.899236   1.098962   2.152158
    19  H    5.353510   3.857240   2.135848   2.098434   1.101458
    20  H    2.722512   2.168957   3.414910   2.161882   2.952168
    21  H    2.758917   2.159404   3.955629   2.145144   3.515117
    22  H    2.715651   2.162362   2.171011   3.391378   2.944119
    23  H    2.744431   2.150682   2.158138   3.938293   3.515010
    24  H    4.472760   3.307026   1.960803   3.930825   3.245533
    25  H    5.767747   4.600537   3.529749   2.661200   2.160183
    26  H    4.757743   4.031572   2.922908   3.910248   2.958896
    27  H    4.168860   3.550706   3.409482   3.115581   2.886006
    28  H    5.831608   5.103561   4.181554   4.262710   3.553168
    29  H    7.082373   5.718521   3.584807   4.032125   2.753734
    30  H    7.262945   6.128557   4.251899   4.704462   3.501658
    31  H    6.458258   5.275446   3.003306   4.358259   2.859380
                    6          7          8          9         10
     6  C    0.000000
     7  C    2.519295   0.000000
     8  O    3.610015   2.398994   0.000000
     9  C    3.427229   3.451138   3.778636   0.000000
    10  C    3.554454   3.344688   4.536160   1.526764   0.000000
    11  C    4.864773   4.372327   4.206623   1.537216   2.487215
    12  H    2.789200   2.790924   4.983725   5.149446   4.461560
    13  H    3.472249   2.760717   4.512927   5.940694   5.538516
    14  H    2.756779   3.475865   5.048036   5.929349   5.627677
    15  H    2.147250   2.153699   2.695222   4.669265   4.921955
    16  H    3.949613   2.161861   2.033507   2.745122   3.139892
    17  H    2.155165   3.937774   4.067755   2.686434   3.509639
    18  H    2.130025   3.405393   2.865195   3.466147   4.393137
    19  H    3.442064   3.462509   2.426373   2.125558   3.492845
    20  H    1.094031   2.832185   4.359385   3.275394   2.996637
    21  H    1.097341   3.467893   4.358442   4.370959   4.541715
    22  H    2.820243   1.094065   3.347038   3.301146   2.722842
    23  H    3.459941   1.097717   2.577264   4.412695   4.268820
    24  H    4.234346   2.538956   0.972409   4.507523   5.075432
    25  H    3.623533   4.291052   4.535963   1.098385   2.127482
    26  H    3.953596   2.989357   4.345781   2.183413   1.094012
    27  H    2.909702   3.210255   4.762176   2.185092   1.090429
    28  H    4.499967   4.420472   5.557419   2.164540   1.096344
    29  H    5.250372   4.920727   4.215771   2.183507   3.453429
    30  H    5.600067   5.231055   5.287929   2.179259   2.710605
    31  H    5.171347   4.110919   3.946282   2.193739   2.771141
                   11         12         13         14         15
    11  C    0.000000
    12  H    6.433098   0.000000
    13  H    7.061059   1.772263   0.000000
    14  H    7.282074   1.772180   1.769698   0.000000
    15  H    5.778432   3.062363   2.475133   2.473940   0.000000
    16  H    2.874798   4.851418   4.859268   5.592837   3.808497
    17  H    4.004973   4.844059   5.581296   4.849098   3.791423
    18  H    4.557531   4.759614   4.915298   4.382206   2.632028
    19  H    2.577079   5.672703   5.912711   5.903565   3.940817
    20  H    4.782518   2.546154   3.745886   3.038774   3.059246
    21  H    5.826062   3.150100   3.753102   2.547537   2.450025
    22  H    4.243959   2.536820   3.037489   3.737514   3.057759
    23  H    5.132213   3.135743   2.532425   3.739292   2.447207
    24  H    4.826720   5.108594   4.369963   5.212560   2.953079
    25  H    2.123266   5.642223   6.575194   6.284918   5.177669
    26  H    2.737050   4.339090   5.233387   5.663189   4.904658
    27  H    3.460416   3.662818   4.958263   4.824445   4.525652
    28  H    2.719338   5.309266   6.518579   6.554498   5.998861
    29  H    1.095101   7.129723   7.622187   7.773577   6.038233
    30  H    1.095649   7.040843   7.844520   8.019432   6.719659
    31  H    1.094386   6.384556   6.841337   7.327684   5.751106
                   16         17         18         19         20
    16  H    0.000000
    17  H    4.324057   0.000000
    18  H    3.904967   1.748424   0.000000
    19  H    2.600615   2.541627   2.253687   0.000000
    20  H    4.214670   2.449864   3.039164   3.932259   0.000000
    21  H    4.982314   2.486175   2.387513   4.203177   1.748648
    22  H    2.461648   4.196241   4.095516   3.951249   2.695433
    23  H    2.507605   4.969837   4.210643   4.241860   3.825989
    24  H    2.251796   4.969691   3.745419   3.345928   4.945564
    25  H    3.790957   2.295662   3.527370   2.498851   3.410954
    26  H    2.650935   4.300172   4.850903   3.832539   3.487411
    27  H    3.686477   3.225747   4.198619   3.889276   2.120119
    28  H    4.050102   4.196195   5.307046   4.282757   3.819713
    29  H    3.310589   4.083562   4.479207   2.324470   5.344039
    30  H    3.831982   4.639509   5.458635   3.587062   5.342564
    31  H    2.294274   4.703626   4.968317   2.959558   5.131370
                   21         22         23         24         25
    21  H    0.000000
    22  H    3.820795   0.000000
    23  H    4.284640   1.755296   0.000000
    24  H    4.975357   3.486030   2.286696   0.000000
    25  H    4.381488   4.157421   5.318319   5.359724   0.000000
    26  H    5.012860   2.231237   3.713136   4.692699   3.056591
    27  H    3.802782   2.537027   4.196870   5.308165   2.512133
    28  H    5.412300   3.717232   5.307299   6.099126   2.423042
    29  H    6.121752   4.998537   5.650688   4.906833   2.475030
    30  H    6.538380   4.927069   6.009066   5.884451   2.442609
    31  H    6.206137   3.975223   4.679459   4.372263   3.057439
                   26         27         28         29         30
    26  H    0.000000
    27  H    1.777971   0.000000
    28  H    1.759146   1.754573   0.000000
    29  H    3.765381   4.324792   3.714566   0.000000
    30  H    3.043589   3.721404   2.480960   1.765232   0.000000
    31  H    2.568967   3.787033   3.114385   1.773207   1.768395
                   31
    31  H    0.000000
 Stoichiometry    C10H20O
 Framework group  C1[X(C10H20O)]
 Deg. of freedom    87
 Full point group                 C1      NOp   1
 Largest Abelian subgroup         C1      NOp   1
 Largest concise Abelian subgroup C1      NOp   1
                         Standard orientation:                         
 ---------------------------------------------------------------------
 Center     Atomic      Atomic             Coordinates (Angstroms)
 Number     Number       Type             X           Y           Z
 ---------------------------------------------------------------------
      1          6           0        3.198284   -0.787320   -0.628349
      2          6           0        2.023008   -0.056126    0.019767
      3          6           0       -0.173736    1.151066   -0.441386
      4          6           0        0.103591   -0.281784    1.656339
      5          6           0       -0.896203    0.355122    0.665695
      6          6           0        1.310288   -0.965329    1.022610
      7          6           0        1.043026    0.444606   -1.048019
      8          8           0        0.277377    2.380399    0.144315
      9          6           0       -1.995390   -0.638111    0.179215
     10          6           0       -1.591795   -1.611984   -0.925181
     11          6           0       -3.248948    0.125793   -0.276942
     12          1           0        2.861770   -1.667813   -1.186249
     13          1           0        3.729499   -0.128610   -1.323416
     14          1           0        3.914097   -1.120563    0.130469
     15          1           0        2.427393    0.809398    0.560980
     16          1           0       -0.872690    1.428562   -1.236447
     17          1           0       -0.410450   -0.987056    2.320039
     18          1           0        0.482741    0.515975    2.310208
     19          1           0       -1.436950    1.092415    1.279862
     20          1           0        1.005678   -1.899352    0.541238
     21          1           0        2.010040   -1.251839    1.817857
     22          1           0        0.724112   -0.392640   -1.675944
     23          1           0        1.573570    1.143086   -1.708043
     24          1           0        0.683015    2.910612   -0.562729
     25          1           0       -2.302759   -1.239869    1.045160
     26          1           0       -1.385134   -1.094823   -1.866828
     27          1           0       -0.721068   -2.207748   -0.649620
     28          1           0       -2.407163   -2.317863   -1.122365
     29          1           0       -3.610624    0.792802    0.512702
     30          1           0       -4.060537   -0.571206   -0.513507
     31          1           0       -3.056306    0.727740   -1.170379
 ---------------------------------------------------------------------
 Rotational constants (GHZ):      1.5621437      0.7794247      0.6874153
 Standard basis: STO-3G (5D, 7F)
 There are    75 symmetry adapted basis functions of A   symmetry.
 Integral buffers will be    131072 words long.
 Raffenetti 1 integral format.
 Two-electron integral symmetry is turned on.
    75 basis functions,   225 primitive gaussians,    75 cartesian basis functions
    44 alpha electrons       44 beta electrons
       nuclear repulsion energy       700.2207975696 Hartrees.
 NAtoms=   31 NActive=   31 NUniq=   31 SFac= 1.00D+00 NAtFMM=   60 NAOKFM=F Big=F
 One-electron integrals computed using PRISM.
 NBasis=    75 RedAO= T  NBF=    75
 NBsUse=    75 1.00D-06 NBFU=    75
 Harris functional with IExCor=  205 diagonalized for initial guess.
 ExpMin= 1.69D-01 ExpMax= 1.31D+02 ExpMxC= 1.31D+02 IAcc=1 IRadAn=         1 AccDes= 0.00D+00
 HarFok:  IExCor=  205 AccDes= 0.00D+00 IRadAn=         1 IDoV= 1
 ScaDFX=  1.000000  1.000000  1.000000  1.000000
 FoFCou: FMM=F IPFlag=           0 FMFlag=      100000 FMFlg1=           0
         NFxFlg=           0 DoJE=T BraDBF=F KetDBF=T FulRan=T
         Omega=  0.000000  0.000000  1.000000  0.000000  0.000000 ICntrl=     500 IOpCl=  0
         NMat0=    1 NMatS0=    1 NMatT0=    0 NMatD0=    1 NMtDS0=    0 NMtDT0=    0
         I1Cent=           4 NGrid=           0.
 Petite list used in FoFCou.
 Initial guess orbital symmetries:
       Occupied  (A) (A) (A) (A) (A) (A) (A) (A) (A) (A) (A) (A)
                 (A) (A) (A) (A) (A) (A) (A) (A) (A) (A) (A) (A)
                 (A) (A) (A) (A) (A) (A) (A) (A) (A) (A) (A) (A)
                 (A) (A) (A) (A) (A) (A) (A) (A)
       Virtual   (A) (A) (A) (A) (A) (A) (A) (A) (A) (A) (A) (A)
                 (A) (A) (A) (A) (A) (A) (A) (A) (A) (A) (A) (A)
                 (A) (A) (A) (A) (A) (A) (A)
 The electronic state of the initial guess is 1-A.
 Requested convergence on RMS density matrix=1.00D-08 within 128 cycles.
 Requested convergence on MAX density matrix=1.00D-06.
 Requested convergence on             energy=1.00D-06.
 No special actions if energy rises.
 Keep R1 ints in memory in canonical form, NReq=4898789.
 SCF Done:  E(RHF) =  -459.614072882     A.U. after   10 cycles
             Convg  =    0.7567D-08             -V/T =  2.0089
 Range of M.O.s used for correlation:     1    75
 NBasis=    75 NAE=    44 NBE=    44 NFC=     0 NFV=     0
 NROrb=     75 NOA=    44 NOB=    44 NVA=    31 NVB=    31
          Differentiating once with respect to magnetic field using GIAOs.
          Electric field/nuclear overlap derivatives assumed to be zero.
          Keep R3 ints in memory in canonical form, NReq=4863575.
 FoFCou: FMM=F IPFlag=           0 FMFlag=           0 FMFlg1=           0
         NFxFlg=           0 DoJE=F BraDBF=F KetDBF=T FulRan=T
         Omega=  0.000000  0.000000  1.000000  0.000000  0.000000 ICntrl=    6100 IOpCl=  0
         NMat0=    1 NMatS0=    1 NMatT0=    0 NMatD0=    1 NMtDS0=    0 NMtDT0=    0
         I1Cent=           7 NGrid=          31.
 Symmetry not used in FoFCou.
          There are     3 degrees of freedom in the 1st order CPHF.  IDoFFX=0.
      3 vectors produced by pass  0 Test12= 4.55D-14 3.33D-08 XBig12= 6.05D+00 3.78D-01.
 AX will form     3 AO Fock derivatives at one time.
      3 vectors produced by pass  1 Test12= 4.55D-14 3.33D-08 XBig12= 8.73D-03 1.64D-02.
      3 vectors produced by pass  2 Test12= 4.55D-14 3.33D-08 XBig12= 8.39D-05 2.68D-03.
      3 vectors produced by pass  3 Test12= 4.55D-14 3.33D-08 XBig12= 1.59D-06 4.55D-04.
      3 vectors produced by pass  4 Test12= 4.55D-14 3.33D-08 XBig12= 2.11D-08 3.26D-05.
      3 vectors produced by pass  5 Test12= 4.55D-14 3.33D-08 XBig12= 3.15D-10 3.18D-06.
      3 vectors produced by pass  6 Test12= 4.55D-14 3.33D-08 XBig12= 2.85D-12 2.09D-07.
 Inverted reduced A of dimension    21 with in-core refinement.
 Calculating GIAO nuclear magnetic shielding tensors.
 SCF GIAO Magnetic shielding tensor (ppm):
      1  C    Isotropic =   220.9117   Anisotropy =    28.4072
   XX=   231.5489   YX=    -8.2855   ZX=    -7.5988
   XY=   -11.0404   YY=   215.7014   ZY=     3.9011
   XZ=    -9.9614   YZ=     3.5503   ZZ=   215.4848
   Eigenvalues:   210.9637   211.9216   239.8498
      2  C    Isotropic =   216.5972   Anisotropy =     6.6766
   XX=   218.4837   YX=    -1.7066   ZX=    -1.3124
   XY=    -3.3844   YY=   214.0592   ZY=    -2.4585
   XZ=    -4.8025   YZ=    -1.9505   ZZ=   217.2485
   Eigenvalues:   211.0489   217.6944   221.0482
      3  C    Isotropic =   190.2376   Anisotropy =    40.8068
   XX=   182.9229   YX=    13.7078   ZX=     0.0535
   XY=    14.9157   YY=   207.5275   ZY=    12.1002
   XZ=     1.9243   YZ=    11.4022   ZZ=   180.2623
   Eigenvalues:   172.7873   180.4833   217.4421
      4  C    Isotropic =   215.5782   Anisotropy =    16.5763
   XX=   222.3929   YX=    -2.4001   ZX=     3.9619
   XY=    -5.1379   YY=   207.9013   ZY=    -6.9263
   XZ=     4.5244   YZ=    -4.6335   ZZ=   216.4406
   Eigenvalues:   204.8484   215.2572   226.6291
      5  C    Isotropic =   211.3412   Anisotropy =    14.8591
   XX=   214.4313   YX=     5.1453   ZX=     4.5011
   XY=     9.1054   YY=   212.1810   ZY=     3.8677
   XZ=     0.3559   YZ=     0.2155   ZZ=   207.4113
   Eigenvalues:   206.0914   206.6849   221.2473
      6  C    Isotropic =   217.5217   Anisotropy =    15.7170
   XX=   220.3210   YX=    -1.0434   ZX=    -7.2848
   XY=     2.7480   YY=   213.7008   ZY=    -3.4737
   XZ=    -8.3888   YZ=    -3.8890   ZZ=   218.5433
   Eigenvalues:   210.0261   214.5393   227.9997
      7  C    Isotropic =   214.9719   Anisotropy =    17.7389
   XX=   221.3860   YX=   -10.4684   ZX=    -3.5475
   XY=    -5.9538   YY=   214.2229   ZY=    -1.4145
   XZ=     2.1032   YZ=    -3.6230   ZZ=   209.3067
   Eigenvalues:   206.5495   211.5683   226.7978
      8  O    Isotropic =   349.5070   Anisotropy =    97.4974
   XX=   337.4043   YX=    28.5579   ZX=   -33.6524
   XY=    11.5758   YY=   349.7164   ZY=   -22.8587
   XZ=   -51.5537   YZ=   -38.8939   ZZ=   361.4005
   Eigenvalues:   304.9062   329.1096   414.5053
      9  C    Isotropic =   211.3199   Anisotropy =    20.1466
   XX=   218.6148   YX=     7.1561   ZX=     3.8051
   XY=     8.9507   YY=   209.4305   ZY=     1.0654
   XZ=     7.1392   YZ=     0.8566   ZZ=   205.9145
   Eigenvalues:   202.7519   206.4569   224.7510
     10  C    Isotropic =   222.7775   Anisotropy =    18.6016
   XX=   221.2077   YX=    -2.1704   ZX=    -2.0646
   XY=    -3.5884   YY=   224.3254   ZY=     8.9349
   XZ=    -4.3916   YZ=    11.5844   ZZ=   222.7994
   Eigenvalues:   213.2510   219.9029   235.1786
     11  C    Isotropic =   220.0446   Anisotropy =    29.0192
   XX=   232.1007   YX=   -11.3831   ZX=     3.7430
   XY=   -12.0270   YY=   217.6374   ZY=     2.6785
   XZ=     9.7611   YZ=     2.5959   ZZ=   210.3957
   Eigenvalues:   204.8065   215.9366   239.3907
     12  H    Isotropic =    32.7387   Anisotropy =    10.9941
   XX=    31.2220   YX=    -1.1271   ZX=    -1.0480
   XY=    -1.1628   YY=    35.7772   ZY=     5.7950
   XZ=    -1.2199   YZ=     5.9224   ZZ=    31.2169
   Eigenvalues:    27.1884    30.9596    40.0681
     13  H    Isotropic =    32.5214   Anisotropy =    13.7219
   XX=    35.8830   YX=     2.1326   ZX=    -6.1459
   XY=     1.9640   YY=    29.6886   ZY=    -3.4508
   XZ=    -6.3230   YZ=    -3.6784   ZZ=    31.9926
   Eigenvalues:    26.2714    29.6235    41.6693
     14  H    Isotropic =    32.4136   Anisotropy =    14.1361
   XX=    38.2536   YX=    -4.6218   ZX=     4.0562
   XY=    -4.6992   YY=    28.2112   ZY=    -2.3801
   XZ=     3.6569   YZ=    -2.0537   ZZ=    30.7760
   Eigenvalues:    26.2450    29.1582    41.8377
     15  H    Isotropic =    32.4006   Anisotropy =    11.3300
   XX=    33.5889   YX=     3.4535   ZX=     2.8539
   XY=     3.6593   YY=    34.4621   ZY=     4.2492
   XZ=     2.5409   YZ=     4.3738   ZZ=    29.1508
   Eigenvalues:    26.6658    30.5821    39.9540
     16  H    Isotropic =    32.0124   Anisotropy =     9.5458
   XX=    34.0204   YX=    -0.8052   ZX=     3.9443
   XY=     0.2998   YY=    30.1588   ZY=    -3.3713
   XZ=     4.9497   YZ=    -4.1693   ZZ=    31.8580
   Eigenvalues:    26.1053    31.5556    38.3763
     17  H    Isotropic =    32.4362   Anisotropy =    13.4414
   XX=    31.4930   YX=     2.0064   ZX=    -3.1673
   XY=     2.3977   YY=    29.7463   ZY=    -6.5400
   XZ=    -3.0859   YZ=    -5.9909   ZZ=    36.0691
   Eigenvalues:    25.8777    30.0337    41.3971
     18  H    Isotropic =    31.9350   Anisotropy =    13.3771
   XX=    28.7967   YX=     1.0576   ZX=     3.4766
   XY=     0.8355   YY=    30.4937   ZY=     5.7525
   XZ=     2.9966   YZ=     5.6868   ZZ=    36.5146
   Eigenvalues:    26.5349    28.4171    40.8531
     19  H    Isotropic =    31.9266   Anisotropy =    11.9628
   XX=    32.8819   YX=    -3.2393   ZX=    -2.8831
   XY=    -3.5966   YY=    32.0515   ZY=     5.5482
   XZ=    -2.9933   YZ=     5.5060   ZZ=    30.8462
   Eigenvalues:    25.8873    29.9907    39.9017
     20  H    Isotropic =    32.9029   Anisotropy =     9.6086
   XX=    31.7330   YX=     1.2632   ZX=     0.2825
   XY=     1.1567   YY=    38.7051   ZY=     1.8315
   XZ=     0.2775   YZ=     2.3330   ZZ=    28.2706
   Eigenvalues:    27.8698    31.5302    39.3086
     21  H    Isotropic =    32.4347   Anisotropy =    14.6965
   XX=    33.9642   YX=    -4.0478   ZX=     4.7616
   XY=    -3.8551   YY=    27.9386   ZY=    -4.7605
   XZ=     4.7340   YZ=    -4.9730   ZZ=    35.4015
   Eigenvalues:    25.1857    29.8861    42.2324
     22  H    Isotropic =    32.7949   Anisotropy =     8.9539
   XX=    32.6769   YX=     1.7938   ZX=     1.2857
   XY=     1.7894   YY=    31.6349   ZY=     5.2492
   XZ=     1.0628   YZ=     4.9180   ZZ=    34.0728
   Eigenvalues:    27.5290    32.0914    38.7641
     23  H    Isotropic =    32.9219   Anisotropy =    12.9394
   XX=    32.2260   YX=     1.4701   ZX=    -4.2502
   XY=     1.4041   YY=    32.3398   ZY=    -6.5658
   XZ=    -4.5293   YZ=    -5.8591   ZZ=    34.2000
   Eigenvalues:    26.2961    30.9215    41.5482
     24  H    Isotropic =    35.0853   Anisotropy =    19.2428
   XX=    29.3693   YX=     6.3421   ZX=    -4.6714
   XY=     6.0093   YY=    42.3417   ZY=    -4.4151
   XZ=    -4.5163   YZ=    -6.1653   ZZ=    33.5449
   Eigenvalues:    25.9049    31.4371    47.9138
     25  H    Isotropic =    32.4744   Anisotropy =    12.1207
   XX=    31.9455   YX=     3.4197   ZX=    -2.7911
   XY=     3.4408   YY=    30.7577   ZY=    -5.8421
   XZ=    -2.4331   YZ=    -5.1162   ZZ=    34.7199
   Eigenvalues:    26.4911    30.3771    40.5548
     26  H    Isotropic =    32.9742   Anisotropy =     8.4115
   XX=    30.5002   YX=     1.9796   ZX=    -1.2638
   XY=     1.9830   YY=    30.0554   ZY=    -0.2759
   XZ=    -1.1218   YZ=    -0.2572   ZZ=    38.3669
   Eigenvalues:    28.2479    32.0928    38.5818
     27  H    Isotropic =    32.7061   Anisotropy =     9.6885
   XX=    35.7950   YX=    -3.6909   ZX=     2.5564
   XY=    -3.7466   YY=    34.9972   ZY=     1.5908
   XZ=     2.2345   YZ=     2.0777   ZZ=    27.3262
   Eigenvalues:    25.8011    33.1521    39.1651
     28  H    Isotropic =    32.5595   Anisotropy =    14.8171
   XX=    33.5910   YX=     5.9934   ZX=     2.1898
   XY=     5.8951   YY=    35.8701   ZY=     4.2774
   XZ=     2.3886   YZ=     4.4902   ZZ=    28.2175
   Eigenvalues:    26.1892    29.0518    42.4376
     29  H    Isotropic =    32.3926   Anisotropy =    13.1823
   XX=    34.8797   YX=    -4.9269   ZX=    -3.4905
   XY=    -4.6610   YY=    31.4643   ZY=     5.0646
   XZ=    -3.0230   YZ=     4.4824   ZZ=    30.8337
   Eigenvalues:    26.2125    29.7844    41.1808
     30  H    Isotropic =    32.4554   Anisotropy =    14.4610
   XX=    39.9844   YX=     3.9516   ZX=     2.6185
   XY=     3.8959   YY=    30.3454   ZY=     1.4585
   XZ=     3.1451   YZ=     1.9201   ZZ=    27.0364
   Eigenvalues:    26.1859    29.0842    42.0960
     31  H    Isotropic =    32.5126   Anisotropy =     9.6600
   XX=    32.5791   YX=    -1.4047   ZX=     1.7469
   XY=    -1.1882   YY=    31.3310   ZY=    -5.5028
   XZ=     2.0113   YZ=    -5.5825   ZZ=    33.6277
   Eigenvalues:    26.8129    31.7724    38.9526
 End of Minotr Frequency-dependent properties file   721 does not exist.
 End of Minotr Frequency-dependent properties file   722 does not exist.

 **********************************************************************

            Population analysis using the SCF density.

 **********************************************************************

 Orbital symmetries:
       Occupied  (A) (A) (A) (A) (A) (A) (A) (A) (A) (A) (A) (A)
                 (A) (A) (A) (A) (A) (A) (A) (A) (A) (A) (A) (A)
                 (A) (A) (A) (A) (A) (A) (A) (A) (A) (A) (A) (A)
                 (A) (A) (A) (A) (A) (A) (A) (A)
       Virtual   (A) (A) (A) (A) (A) (A) (A) (A) (A) (A) (A) (A)
                 (A) (A) (A) (A) (A) (A) (A) (A) (A) (A) (A) (A)
                 (A) (A) (A) (A) (A) (A) (A)
 The electronic state is 1-A.
 Alpha  occ. eigenvalues --  -20.23369 -11.08512 -11.04778 -11.04317 -11.04135
 Alpha  occ. eigenvalues --  -11.03675 -11.03210 -11.03148 -11.03031 -11.03020
 Alpha  occ. eigenvalues --  -11.02902  -1.27502  -1.07751  -1.03590  -0.96918
 Alpha  occ. eigenvalues --   -0.94595  -0.89323  -0.87806  -0.79427  -0.78186
 Alpha  occ. eigenvalues --   -0.73934  -0.68125  -0.62140  -0.60430  -0.58452
 Alpha  occ. eigenvalues --   -0.58154  -0.56765  -0.54079  -0.53410  -0.52917
 Alpha  occ. eigenvalues --   -0.51657  -0.49797  -0.49285  -0.47868  -0.47050
 Alpha  occ. eigenvalues --   -0.46402  -0.42932  -0.42736  -0.42109  -0.40403
 Alpha  occ. eigenvalues --   -0.38719  -0.38509  -0.36658  -0.33254
 Alpha virt. eigenvalues --    0.52586   0.55966   0.58588   0.58864   0.61063
 Alpha virt. eigenvalues --    0.61398   0.62439   0.63901   0.64811   0.65709
 Alpha virt. eigenvalues --    0.69665   0.70240   0.70591   0.71555   0.72170
 Alpha virt. eigenvalues --    0.73436   0.74122   0.74293   0.74861   0.75918
 Alpha virt. eigenvalues --    0.76538   0.77999   0.78953   0.79762   0.81232
 Alpha virt. eigenvalues --    0.81576   0.83300   0.83677   0.84185   0.85496
 Alpha virt. eigenvalues --    0.86312
          Condensed to atoms (all electrons):
              1          2          3          4          5          6
     1  C    4.740609   0.365927   0.000702   0.000736   0.000005  -0.024475
     2  C    0.365927   4.742289  -0.020451  -0.021880  -0.003735   0.364734
     3  C    0.000702  -0.020451   4.740426  -0.021636   0.358326  -0.004123
     4  C    0.000736  -0.021880  -0.021636   4.756558   0.358987   0.363198
     5  C    0.000005  -0.003735   0.358326   0.358987   4.774882  -0.019586
     6  C   -0.024475   0.364734  -0.004123   0.363198  -0.019586   4.755249
     7  C   -0.024339   0.363218   0.358323  -0.004539  -0.020362  -0.023648
     8  O   -0.000001  -0.000741   0.264839  -0.000124  -0.018570   0.000047
     9  C    0.000000   0.000027  -0.017597  -0.021312   0.357967  -0.000036
    10  C    0.000001   0.000041  -0.001638  -0.000167  -0.019143  -0.000522
    11  C    0.000000   0.000000  -0.001031   0.000675  -0.023173  -0.000004
    12  H    0.382078  -0.020704   0.000007   0.000008   0.000001  -0.002246
    13  H    0.382139  -0.020348   0.000012  -0.000018   0.000000   0.001301
    14  H    0.382491  -0.020189  -0.000017   0.000013   0.000000  -0.002239
    15  H   -0.024238   0.382365  -0.001551  -0.001685   0.000066  -0.023813
    16  H   -0.000014   0.001163   0.376098   0.001088  -0.022719   0.000013
    17  H   -0.000015   0.001245   0.001078   0.382257  -0.020844  -0.021988
    18  H    0.000004  -0.001681  -0.000422   0.382166  -0.022604  -0.024482
    19  H    0.000001   0.000017  -0.023479  -0.025546   0.380124   0.001260
    20  H   -0.002682  -0.022485   0.000073  -0.022803  -0.000838   0.381576
    21  H   -0.002021  -0.021563   0.000014  -0.021841   0.001154   0.382425
    22  H   -0.002793  -0.022075  -0.020073   0.000075  -0.000482  -0.001678
    23  H   -0.002064  -0.022506  -0.022102   0.000020   0.001058   0.001283
    24  H   -0.000004   0.000012  -0.040466  -0.000018   0.002523  -0.000003
    25  H    0.000000  -0.000001   0.000998  -0.004095  -0.023002   0.000053
    26  H    0.000001   0.000002  -0.000069  -0.000001  -0.001208   0.000028
    27  H    0.000002  -0.000011   0.000011   0.000124  -0.001490  -0.001088
    28  H    0.000000   0.000000   0.000007  -0.000008   0.001085   0.000007
    29  H    0.000000   0.000000   0.000048   0.000028  -0.002640   0.000000
    30  H    0.000000   0.000000   0.000005  -0.000015   0.001184   0.000000
    31  H    0.000000   0.000000  -0.000526  -0.000002  -0.001460   0.000000
              7          8          9         10         11         12
     1  C   -0.024339  -0.000001   0.000000   0.000001   0.000000   0.382078
     2  C    0.363218  -0.000741   0.000027   0.000041   0.000000  -0.020704
     3  C    0.358323   0.264839  -0.017597  -0.001638  -0.001031   0.000007
     4  C   -0.004539  -0.000124  -0.021312  -0.000167   0.000675   0.000008
     5  C   -0.020362  -0.018570   0.357967  -0.019143  -0.023173   0.000001
     6  C   -0.023648   0.000047  -0.000036  -0.000522  -0.000004  -0.002246
     7  C    4.782015  -0.020514   0.000024  -0.000878   0.000012  -0.002234
     8  O   -0.020514   7.853574   0.000206   0.000000   0.000003   0.000000
     9  C    0.000024   0.000206   4.740976   0.364141   0.363515   0.000000
    10  C   -0.000878   0.000000   0.364141   4.744653  -0.027372  -0.000001
    11  C    0.000012   0.000003   0.363515  -0.027372   4.747168   0.000000
    12  H   -0.002234   0.000000   0.000000  -0.000001   0.000000   0.632095
    13  H   -0.002224   0.000000   0.000000   0.000000   0.000000  -0.021806
    14  H    0.001288   0.000000   0.000000   0.000000   0.000000  -0.021715
    15  H   -0.023809   0.000334   0.000000  -0.000002   0.000000   0.001883
    16  H   -0.026126  -0.019106  -0.002598  -0.000121  -0.000544   0.000000
    17  H    0.000013  -0.000003  -0.004067   0.000069   0.000039   0.000000
    18  H    0.000043   0.000123   0.001224  -0.000013  -0.000018  -0.000001
    19  H    0.001161  -0.001638  -0.024244   0.001161  -0.004959   0.000000
    20  H   -0.001637   0.000000   0.000130  -0.001098  -0.000002   0.000362
    21  H    0.001270  -0.000001  -0.000010   0.000009   0.000000  -0.000001
    22  H    0.380557   0.000633  -0.000039  -0.001492   0.000006   0.000373
    23  H    0.380584  -0.001888  -0.000005   0.000014   0.000000  -0.000008
    24  H   -0.002940   0.256984  -0.000035   0.000000   0.000000   0.000000
    25  H   -0.000017  -0.000004   0.382279  -0.024969  -0.024690   0.000000
    26  H   -0.001045   0.000000  -0.020710   0.382752  -0.002713   0.000000
    27  H   -0.000275   0.000000  -0.019874   0.383479   0.001382   0.000002
    28  H    0.000020   0.000000  -0.019956   0.381889  -0.002560   0.000000
    29  H   -0.000001  -0.000001  -0.019974   0.001337   0.382464   0.000000
    30  H    0.000000   0.000000  -0.019753  -0.002394   0.382245   0.000000
    31  H    0.000008  -0.000003  -0.020198  -0.002332   0.382031   0.000000
             13         14         15         16         17         18
     1  C    0.382139   0.382491  -0.024238  -0.000014  -0.000015   0.000004
     2  C   -0.020348  -0.020189   0.382365   0.001163   0.001245  -0.001681
     3  C    0.000012  -0.000017  -0.001551   0.376098   0.001078  -0.000422
     4  C   -0.000018   0.000013  -0.001685   0.001088   0.382257   0.382166
     5  C    0.000000   0.000000   0.000066  -0.022719  -0.020844  -0.022604
     6  C    0.001301  -0.002239  -0.023813   0.000013  -0.021988  -0.024482
     7  C   -0.002224   0.001288  -0.023809  -0.026126   0.000013   0.000043
     8  O    0.000000   0.000000   0.000334  -0.019106  -0.000003   0.000123
     9  C    0.000000   0.000000   0.000000  -0.002598  -0.004067   0.001224
    10  C    0.000000   0.000000  -0.000002  -0.000121   0.000069  -0.000013
    11  C    0.000000   0.000000   0.000000  -0.000544   0.000039  -0.000018
    12  H   -0.021806  -0.021715   0.001883   0.000000   0.000000  -0.000001
    13  H    0.632462  -0.021624  -0.002283  -0.000001   0.000000   0.000000
    14  H   -0.021624   0.629665  -0.002279   0.000000  -0.000001   0.000002
    15  H   -0.002283  -0.002279   0.643061   0.000007   0.000003   0.000300
    16  H   -0.000001   0.000000   0.000007   0.659641  -0.000028  -0.000009
    17  H    0.000000  -0.000001   0.000003  -0.000028   0.641974  -0.023590
    18  H    0.000000   0.000002   0.000300  -0.000009  -0.023590   0.642008
    19  H    0.000000   0.000000  -0.000016  -0.000639  -0.000573  -0.006020
    20  H    0.000018  -0.000013   0.001899  -0.000009  -0.003005   0.002054
    21  H    0.000012   0.000241  -0.002799   0.000002  -0.001621  -0.003715
    22  H   -0.000019   0.000021   0.001903  -0.002255  -0.000008   0.000003
    23  H    0.000263   0.000012  -0.002792  -0.001605   0.000002  -0.000006
    24  H    0.000000   0.000000  -0.000007  -0.003702   0.000001  -0.000015
    25  H    0.000000   0.000000   0.000000   0.000019   0.000103   0.000063
    26  H    0.000000   0.000000   0.000000  -0.000075   0.000001  -0.000001
    27  H    0.000000   0.000000  -0.000001   0.000021   0.000046  -0.000005
    28  H    0.000000   0.000000   0.000000  -0.000009  -0.000009   0.000001
    29  H    0.000000   0.000000   0.000000   0.000029   0.000005  -0.000001
    30  H    0.000000   0.000000   0.000000  -0.000009  -0.000002   0.000000
    31  H    0.000000   0.000000   0.000000  -0.000310   0.000000   0.000000
             19         20         21         22         23         24
     1  C    0.000001  -0.002682  -0.002021  -0.002793  -0.002064  -0.000004
     2  C    0.000017  -0.022485  -0.021563  -0.022075  -0.022506   0.000012
     3  C   -0.023479   0.000073   0.000014  -0.020073  -0.022102  -0.040466
     4  C   -0.025546  -0.022803  -0.021841   0.000075   0.000020  -0.000018
     5  C    0.380124  -0.000838   0.001154  -0.000482   0.001058   0.002523
     6  C    0.001260   0.381576   0.382425  -0.001678   0.001283  -0.000003
     7  C    0.001161  -0.001637   0.001270   0.380557   0.380584  -0.002940
     8  O   -0.001638   0.000000  -0.000001   0.000633  -0.001888   0.256984
     9  C   -0.024244   0.000130  -0.000010  -0.000039  -0.000005  -0.000035
    10  C    0.001161  -0.001098   0.000009  -0.001492   0.000014   0.000000
    11  C   -0.004959  -0.000002   0.000000   0.000006   0.000000   0.000000
    12  H    0.000000   0.000362  -0.000001   0.000373  -0.000008   0.000000
    13  H    0.000000   0.000018   0.000012  -0.000019   0.000263   0.000000
    14  H    0.000000  -0.000013   0.000241   0.000021   0.000012   0.000000
    15  H   -0.000016   0.001899  -0.002799   0.001903  -0.002792  -0.000007
    16  H   -0.000639  -0.000009   0.000002  -0.002255  -0.001605  -0.003702
    17  H   -0.000573  -0.003005  -0.001621  -0.000008   0.000002   0.000001
    18  H   -0.006020   0.002054  -0.003715   0.000003  -0.000006  -0.000015
    19  H    0.644588  -0.000013  -0.000033  -0.000003  -0.000035   0.000126
    20  H   -0.000013   0.647559  -0.024268   0.000272   0.000002   0.000000
    21  H   -0.000033  -0.024268   0.643236   0.000003  -0.000034   0.000000
    22  H   -0.000003   0.000272   0.000003   0.636768  -0.023032   0.000001
    23  H   -0.000035   0.000002  -0.000034  -0.023032   0.648246   0.000517
    24  H    0.000126   0.000000   0.000000   0.000001   0.000517   0.613436
    25  H   -0.001161   0.000038  -0.000006  -0.000001   0.000001   0.000001
    26  H    0.000000   0.000007   0.000000  -0.000790   0.000028   0.000001
    27  H    0.000004  -0.000663   0.000016  -0.000364   0.000005   0.000000
    28  H   -0.000032   0.000018   0.000000   0.000030   0.000000   0.000000
    29  H    0.000023   0.000000   0.000000   0.000000   0.000000   0.000000
    30  H    0.000075   0.000000   0.000000   0.000000   0.000000   0.000000
    31  H    0.000018   0.000000   0.000000   0.000002   0.000000   0.000003
             25         26         27         28         29         30
     1  C    0.000000   0.000001   0.000002   0.000000   0.000000   0.000000
     2  C   -0.000001   0.000002  -0.000011   0.000000   0.000000   0.000000
     3  C    0.000998  -0.000069   0.000011   0.000007   0.000048   0.000005
     4  C   -0.004095  -0.000001   0.000124  -0.000008   0.000028  -0.000015
     5  C   -0.023002  -0.001208  -0.001490   0.001085  -0.002640   0.001184
     6  C    0.000053   0.000028  -0.001088   0.000007   0.000000   0.000000
     7  C   -0.000017  -0.001045  -0.000275   0.000020  -0.000001   0.000000
     8  O   -0.000004   0.000000   0.000000   0.000000  -0.000001   0.000000
     9  C    0.382279  -0.020710  -0.019874  -0.019956  -0.019974  -0.019753
    10  C   -0.024969   0.382752   0.383479   0.381889   0.001337  -0.002394
    11  C   -0.024690  -0.002713   0.001382  -0.002560   0.382464   0.382245
    12  H    0.000000   0.000000   0.000002   0.000000   0.000000   0.000000
    13  H    0.000000   0.000000   0.000000   0.000000   0.000000   0.000000
    14  H    0.000000   0.000000   0.000000   0.000000   0.000000   0.000000
    15  H    0.000000   0.000000  -0.000001   0.000000   0.000000   0.000000
    16  H    0.000019  -0.000075   0.000021  -0.000009   0.000029  -0.000009
    17  H    0.000103   0.000001   0.000046  -0.000009   0.000005  -0.000002
    18  H    0.000063  -0.000001  -0.000005   0.000001  -0.000001   0.000000
    19  H   -0.001161   0.000000   0.000004  -0.000032   0.000023   0.000075
    20  H    0.000038   0.000007  -0.000663   0.000018   0.000000   0.000000
    21  H   -0.000006   0.000000   0.000016   0.000000   0.000000   0.000000
    22  H   -0.000001  -0.000790  -0.000364   0.000030   0.000000   0.000000
    23  H    0.000001   0.000028   0.000005   0.000000   0.000000   0.000000
    24  H    0.000001   0.000001   0.000000   0.000000   0.000000   0.000000
    25  H    0.650403   0.001951  -0.001880  -0.003022  -0.002208  -0.002651
    26  H    0.001951   0.632482  -0.021532  -0.022245   0.000019  -0.000023
    27  H   -0.001880  -0.021532   0.628747  -0.022293  -0.000038   0.000031
    28  H   -0.003022  -0.022245  -0.022293   0.632093   0.000034   0.000033
    29  H   -0.002208   0.000019  -0.000038   0.000034   0.630515  -0.021887
    30  H   -0.002651  -0.000023   0.000031   0.000033  -0.021887   0.632335
    31  H    0.001913   0.000357   0.000011  -0.000007  -0.021708  -0.021979
             31
     1  C    0.000000
     2  C    0.000000
     3  C   -0.000526
     4  C   -0.000002
     5  C   -0.001460
     6  C    0.000000
     7  C    0.000008
     8  O   -0.000003
     9  C   -0.020198
    10  C   -0.002332
    11  C    0.382031
    12  H    0.000000
    13  H    0.000000
    14  H    0.000000
    15  H    0.000000
    16  H   -0.000310
    17  H    0.000000
    18  H    0.000000
    19  H    0.000018
    20  H    0.000000
    21  H    0.000000
    22  H    0.000002
    23  H    0.000000
    24  H    0.000003
    25  H    0.001913
    26  H    0.000357
    27  H    0.000011
    28  H   -0.000007
    29  H   -0.021708
    30  H   -0.021979
    31  H    0.632708
 Mulliken atomic charges:
              1
     1  C   -0.172047
     2  C   -0.022669
     3  C    0.074211
     4  C   -0.100244
     5  C   -0.035507
     6  C   -0.101242
     7  C   -0.113947
     8  O   -0.314149
     9  C   -0.020079
    10  C   -0.177402
    11  C   -0.172473
    12  H    0.051907
    13  H    0.052114
    14  H    0.054343
    15  H    0.053454
    16  H    0.041796
    17  H    0.048916
    18  H    0.054590
    19  H    0.059834
    20  H    0.045509
    21  H    0.049533
    22  H    0.054457
    23  H    0.044043
    24  H    0.173586
    25  H    0.049887
    26  H    0.052784
    27  H    0.055633
    28  H    0.054926
    29  H    0.053957
    30  H    0.052805
    31  H    0.051475
 Sum of Mulliken atomic charges =   0.00000
 Mulliken charges with hydrogens summed into heavy atoms:
              1
     1  C   -0.013684
     2  C    0.030785
     3  C    0.116007
     4  C    0.003262
     5  C    0.024327
     6  C   -0.006200
     7  C   -0.015447
     8  O   -0.140564
     9  C    0.029808
    10  C   -0.014059
    11  C   -0.014236
 Sum of Mulliken charges with hydrogens summed into heavy atoms =   0.00000
 Electronic spatial extent (au):  <R**2>=           1996.6625
 Charge=              0.0000 electrons
 Dipole moment (field-independent basis, Debye):
    X=              0.0949    Y=             -0.4257    Z=             -1.1376  Tot=              1.2184
 Quadrupole moment (field-independent basis, Debye-Ang):
   XX=            -67.5793   YY=            -68.2665   ZZ=            -67.0003
   XY=              1.5564   XZ=             -0.5552   YZ=             -3.5837
 Traceless Quadrupole moment (field-independent basis, Debye-Ang):
   XX=              0.0361   YY=             -0.6512   ZZ=              0.6151
   XY=              1.5564   XZ=             -0.5552   YZ=             -3.5837
 Octapole moment (field-independent basis, Debye-Ang**2):
  XXX=              1.3650  YYY=             14.7157  ZZZ=              0.9516  XYY=              3.5091
  XXY=              5.5985  XXZ=              2.2832  XZZ=              0.6141  YZZ=              6.5955
  YYZ=             -9.0697  XYZ=             -2.4878
 Hexadecapole moment (field-independent basis, Debye-Ang**3):
 XXXX=          -1574.5359 YYYY=           -548.6645 ZZZZ=           -413.4383 XXXY=             18.8130
 XXXZ=              4.0806 YYYX=             19.5971 YYYZ=            -23.6464 ZZZX=              0.3458
 ZZZY=             -1.4654 XXYY=           -346.6911 XXZZ=           -325.4401 YYZZ=           -157.9457
 XXYZ=             -2.3329 YYXZ=             -5.8668 ZZXY=              1.9173
 N-N= 7.002207975696D+02 E-N=-2.472523249787D+03  KE= 4.555531337371D+02
 ******************************Gaussian NBO Version 3.1******************************
             N A T U R A L   A T O M I C   O R B I T A L   A N D
          N A T U R A L   B O N D   O R B I T A L   A N A L Y S I S
 ******************************Gaussian NBO Version 3.1******************************
       /RESON  / : Allow strongly delocalized NBO set
       /NLMO   / : Form Natural Localized Molecular Orbitals
       /NMR /    : Analyze NMR Sheilding Tensor 

 Analyzing the SCF density

 Job title: comment                                                         

 Storage needed:     19864 in NPA,     23691 in NBO,     45933 in NLMO (  33549317 available)


 NATURAL POPULATIONS:  Natural atomic orbital occupancies 
                                                          
   NAO  Atom  No  lang   Type(AO)    Occupancy      Energy
 ----------------------------------------------------------
     1    C    1  S      Cor( 1S)     1.99997     -10.96374
     2    C    1  S      Val( 2S)     1.07978      -0.18037
     3    C    1  px     Val( 2p)     1.00717       0.08652
     4    C    1  py     Val( 2p)     1.01865       0.08721
     5    C    1  pz     Val( 2p)     1.02135       0.08638

     6    C    2  S      Cor( 1S)     1.99997     -10.98542
     7    C    2  S      Val( 2S)     1.07791      -0.18704
     8    C    2  px     Val( 2p)     0.95669       0.11264
     9    C    2  py     Val( 2p)     0.98337       0.10706
    10    C    2  pz     Val( 2p)     0.96712       0.11067

    11    C    3  S      Cor( 1S)     1.99988     -11.03424
    12    C    3  S      Val( 2S)     1.08903      -0.21691
    13    C    3  px     Val( 2p)     0.95496       0.09546
    14    C    3  py     Val( 2p)     0.86178       0.10871
    15    C    3  pz     Val( 2p)     0.95062       0.09834

    16    C    4  S      Cor( 1S)     1.99996     -10.96907
    17    C    4  S      Val( 2S)     1.08547      -0.18397
    18    C    4  px     Val( 2p)     0.98098       0.10698
    19    C    4  py     Val( 2p)     1.00695       0.10087
    20    C    4  pz     Val( 2p)     0.98997       0.09844

    21    C    5  S      Cor( 1S)     1.99995     -10.98729
    22    C    5  S      Val( 2S)     1.10193      -0.20845
    23    C    5  px     Val( 2p)     0.96572       0.10854
    24    C    5  py     Val( 2p)     0.98042       0.10224
    25    C    5  pz     Val( 2p)     0.96644       0.10712

    26    C    6  S      Cor( 1S)     1.99996     -10.96885
    27    C    6  S      Val( 2S)     1.08102      -0.18024
    28    C    6  px     Val( 2p)     0.99171       0.09935
    29    C    6  py     Val( 2p)     0.99166       0.10422
    30    C    6  pz     Val( 2p)     1.00022       0.09813

    31    C    7  S      Cor( 1S)     1.99996     -10.97479
    32    C    7  S      Val( 2S)     1.09174      -0.19717
    33    C    7  px     Val( 2p)     0.99053       0.08925
    34    C    7  py     Val( 2p)     1.01390       0.08642
    35    C    7  pz     Val( 2p)     0.99406       0.08991

    36    O    8  S      Cor( 1S)     1.99999     -20.13845
    37    O    8  S      Val( 2S)     1.75264      -0.99828
    38    O    8  px     Val( 2p)     1.79639      -0.29452
    39    O    8  py     Val( 2p)     1.28248      -0.08125
    40    O    8  pz     Val( 2p)     1.50417      -0.19061

    41    C    9  S      Cor( 1S)     1.99996     -10.99185
    42    C    9  S      Val( 2S)     1.08572      -0.19724
    43    C    9  px     Val( 2p)     0.95488       0.10582
    44    C    9  py     Val( 2p)     0.96046       0.11108
    45    C    9  pz     Val( 2p)     0.97778       0.10764

    46    C   10  S      Cor( 1S)     1.99997     -10.96514
    47    C   10  S      Val( 2S)     1.07913      -0.18107
    48    C   10  px     Val( 2p)     1.03093       0.08069
    49    C   10  py     Val( 2p)     1.01465       0.08377
    50    C   10  pz     Val( 2p)     1.00930       0.08617

    51    C   11  S      Cor( 1S)     1.99997     -10.96300
    52    C   11  S      Val( 2S)     1.08245      -0.18221
    53    C   11  px     Val( 2p)     1.00149       0.08725
    54    C   11  py     Val( 2p)     1.01899       0.08646
    55    C   11  pz     Val( 2p)     1.02490       0.08706

    56    H   12  S      Val( 1S)     0.96531       0.07409

    57    H   13  S      Val( 1S)     0.96505       0.07418

    58    H   14  S      Val( 1S)     0.96294       0.07607

    59    H   15  S      Val( 1S)     0.97123       0.07410

    60    H   16  S      Val( 1S)     0.99417       0.04961

    61    H   17  S      Val( 1S)     0.97190       0.07460

    62    H   18  S      Val( 1S)     0.96699       0.08216

    63    H   19  S      Val( 1S)     0.96594       0.07780

    64    H   20  S      Val( 1S)     0.97524       0.07674

    65    H   21  S      Val( 1S)     0.97057       0.07447

    66    H   22  S      Val( 1S)     0.96636       0.07191

    67    H   23  S      Val( 1S)     0.97526       0.06024

    68    H   24  S      Val( 1S)     0.81414       0.07472

    69    H   25  S      Val( 1S)     0.97549       0.06726

    70    H   26  S      Val( 1S)     0.96408       0.07369

    71    H   27  S      Val( 1S)     0.96212       0.08006

    72    H   28  S      Val( 1S)     0.96174       0.07392

    73    H   29  S      Val( 1S)     0.96374       0.07747

    74    H   30  S      Val( 1S)     0.96458       0.07472

    75    H   31  S      Val( 1S)     0.96612       0.07526


 Summary of Natural Population Analysis:                  
                                                          
                                       Natural Population 
                Natural  -----------------------------------------------
    Atom  No    Charge         Core      Valence    Rydberg      Total
 -----------------------------------------------------------------------
      C    1   -0.12692      1.99997     4.12695    0.00000     6.12692
      C    2    0.01494      1.99997     3.98509    0.00000     5.98506
      C    3    0.14374      1.99988     3.85638    0.00000     5.85626
      C    4   -0.06333      1.99996     4.06337    0.00000     6.06333
      C    5   -0.01446      1.99995     4.01451    0.00000     6.01446
      C    6   -0.06458      1.99996     4.06462    0.00000     6.06458
      C    7   -0.09019      1.99996     4.09023    0.00000     6.09019
      O    8   -0.33566      1.99999     6.33567    0.00000     8.33566
      C    9    0.02120      1.99996     3.97884    0.00000     5.97880
      C   10   -0.13397      1.99997     4.13401    0.00000     6.13397
      C   11   -0.12780      1.99997     4.12783    0.00000     6.12780
      H   12    0.03469      0.00000     0.96531    0.00000     0.96531
      H   13    0.03495      0.00000     0.96505    0.00000     0.96505
      H   14    0.03706      0.00000     0.96294    0.00000     0.96294
      H   15    0.02877      0.00000     0.97123    0.00000     0.97123
      H   16    0.00583      0.00000     0.99417    0.00000     0.99417
      H   17    0.02810      0.00000     0.97190    0.00000     0.97190
      H   18    0.03301      0.00000     0.96699    0.00000     0.96699
      H   19    0.03406      0.00000     0.96594    0.00000     0.96594
      H   20    0.02476      0.00000     0.97524    0.00000     0.97524
      H   21    0.02943      0.00000     0.97057    0.00000     0.97057
      H   22    0.03364      0.00000     0.96636    0.00000     0.96636
      H   23    0.02474      0.00000     0.97526    0.00000     0.97526
      H   24    0.18586      0.00000     0.81414    0.00000     0.81414
      H   25    0.02451      0.00000     0.97549    0.00000     0.97549
      H   26    0.03592      0.00000     0.96408    0.00000     0.96408
      H   27    0.03788      0.00000     0.96212    0.00000     0.96212
      H   28    0.03826      0.00000     0.96174    0.00000     0.96174
      H   29    0.03626      0.00000     0.96374    0.00000     0.96374
      H   30    0.03542      0.00000     0.96458    0.00000     0.96458
      H   31    0.03388      0.00000     0.96612    0.00000     0.96612
 =======================================================================
   * Total *    0.00000     21.99954    66.00046    0.00000    88.00000

                                 Natural Population      
 --------------------------------------------------------
   Core                      21.99954 ( 99.9979% of  22)
   Valence                   66.00046 (100.0007% of  66)
   Natural Minimal Basis     88.00000 (100.0000% of  88)
   Natural Rydberg Basis      0.00000 (  0.0000% of  88)
 --------------------------------------------------------

    Atom  No          Natural Electron Configuration
 ----------------------------------------------------------------------------
      C    1      [core]2S( 1.08)2p( 3.05)
      C    2      [core]2S( 1.08)2p( 2.91)
      C    3      [core]2S( 1.09)2p( 2.77)
      C    4      [core]2S( 1.09)2p( 2.98)
      C    5      [core]2S( 1.10)2p( 2.91)
      C    6      [core]2S( 1.08)2p( 2.98)
      C    7      [core]2S( 1.09)2p( 3.00)
      O    8      [core]2S( 1.75)2p( 4.58)
      C    9      [core]2S( 1.09)2p( 2.89)
      C   10      [core]2S( 1.08)2p( 3.05)
      C   11      [core]2S( 1.08)2p( 3.05)
      H   12            1S( 0.97)
      H   13            1S( 0.97)
      H   14            1S( 0.96)
      H   15            1S( 0.97)
      H   16            1S( 0.99)
      H   17            1S( 0.97)
      H   18            1S( 0.97)
      H   19            1S( 0.97)
      H   20            1S( 0.98)
      H   21            1S( 0.97)
      H   22            1S( 0.97)
      H   23            1S( 0.98)
      H   24            1S( 0.81)
      H   25            1S( 0.98)
      H   26            1S( 0.96)
      H   27            1S( 0.96)
      H   28            1S( 0.96)
      H   29            1S( 0.96)
      H   30            1S( 0.96)
      H   31            1S( 0.97)


 NATURAL BOND ORBITAL ANALYSIS:

                       Occupancies       Lewis Structure    Low   High
           Occ.    -------------------  -----------------   occ   occ
  Cycle   Thresh.   Lewis   Non-Lewis     CR  BD  3C  LP    (L)   (NL)   Dev
 =============================================================================
   1(1)    1.90    87.63749   0.36251     11  31   0   2     0      0    0.02
 -----------------------------------------------------------------------------

 Structure accepted: No low occupancy Lewis orbitals

 --------------------------------------------------------
   Core                     21.99953 ( 99.998% of  22)
   Valence Lewis            65.63796 ( 99.451% of  66)
  ==================       ============================
   Total Lewis              87.63749 ( 99.588% of  88)
  -----------------------------------------------------
   Valence non-Lewis         0.36251 (  0.412% of  88)
   Rydberg non-Lewis         0.00000 (  0.000% of  88)
  ==================       ============================
   Total non-Lewis           0.36251 (  0.412% of  88)
 --------------------------------------------------------


       (Occupancy)   Bond orbital/ Coefficients/ Hybrids
 ---------------------------------------------------------------------------------
     1. (1.98881) BD ( 1) C   1 - C   2  
                ( 50.96%)   0.7139* C   1 s( 25.77%)p 2.88( 74.23%)
                                            0.0001  0.5076 -0.6655  0.4095  0.3630
                ( 49.04%)   0.7003* C   2 s( 25.11%)p 2.98( 74.89%)
                                            0.0000  0.5011  0.6517 -0.4268 -0.3770
     2. (1.99550) BD ( 1) C   1 - H  12  
                ( 51.78%)   0.7196* C   1 s( 24.81%)p 3.03( 75.19%)
                                            0.0000  0.4981 -0.2847 -0.6930 -0.4367
                ( 48.22%)   0.6944* H  12 s(100.00%)
                                            1.0000
     3. (1.99506) BD ( 1) C   1 - H  13  
                ( 51.76%)   0.7195* C   1 s( 24.68%)p 3.05( 75.32%)
                                            0.0000  0.4968  0.4089  0.5345 -0.5481
                ( 48.24%)   0.6945* H  13 s(100.00%)
                                            1.0000
     4. (1.99497) BD ( 1) C   1 - H  14  
                ( 51.86%)   0.7202* C   1 s( 24.75%)p 3.04( 75.25%)
                                            0.0000  0.4975  0.5558 -0.2578  0.6142
                ( 48.14%)   0.6938* H  14 s(100.00%)
                                            1.0000
     5. (1.98530) BD ( 1) C   2 - C   6  
                ( 49.65%)   0.7046* C   2 s( 25.09%)p 2.99( 74.91%)
                                            0.0000  0.5009 -0.4073 -0.5243  0.5552
                ( 50.35%)   0.7096* C   6 s( 25.43%)p 2.93( 74.57%)
                                            0.0001  0.5043  0.3903  0.5213 -0.5671
     6. (1.98505) BD ( 1) C   2 - C   7  
                ( 49.22%)   0.7016* C   2 s( 24.99%)p 3.00( 75.01%)
                                            0.0000  0.4999 -0.5577  0.2699 -0.6052
                ( 50.78%)   0.7126* C   7 s( 25.29%)p 2.95( 74.71%)
                                            0.0001  0.5029  0.5362 -0.2778  0.6184
     7. (1.98504) BD ( 1) C   2 - H  15  
                ( 51.39%)   0.7168* C   2 s( 24.82%)p 3.03( 75.18%)
                                            0.0000  0.4982  0.3136  0.6856  0.4282
                ( 48.61%)   0.6972* H  15 s(100.00%)
                                            1.0000
     8. (1.98173) BD ( 1) C   3 - C   5  
                ( 50.60%)   0.7113* C   3 s( 26.83%)p 2.73( 73.17%)
                                            0.0000  0.5180 -0.3820 -0.4569  0.6140
                ( 49.40%)   0.7028* C   5 s( 25.67%)p 2.90( 74.33%)
                                            0.0001  0.5067  0.4080  0.4023 -0.6442
     9. (1.98783) BD ( 1) C   3 - C   7  
                ( 49.42%)   0.7030* C   3 s( 25.94%)p 2.86( 74.06%)
                                            0.0000  0.5093  0.6763 -0.4227 -0.3234
                ( 50.58%)   0.7112* C   7 s( 25.28%)p 2.96( 74.72%)
                                            0.0000  0.5028 -0.6861  0.3845  0.3587
    10. (1.98807) BD ( 1) C   3 - O   8  
                ( 41.02%)   0.6405* C   3 s( 21.48%)p 3.66( 78.52%)
                                           -0.0001  0.4634  0.2938  0.7568  0.3551
                ( 58.98%)   0.7680* O   8 s( 16.12%)p 5.20( 83.88%)
                                            0.0000  0.4015 -0.2648 -0.7662 -0.4262
    11. (1.98812) BD ( 1) C   3 - H  16  
                ( 50.56%)   0.7111* C   3 s( 25.76%)p 2.88( 74.24%)
                                            0.0000  0.5075 -0.5571  0.1994 -0.6264
                ( 49.44%)   0.7031* H  16 s(100.00%)
                                            1.0000
    12. (1.98478) BD ( 1) C   4 - C   5  
                ( 50.27%)   0.7090* C   4 s( 25.59%)p 2.91( 74.41%)
                                            0.0001  0.5059 -0.5417  0.3256 -0.5870
                ( 49.73%)   0.7052* C   5 s( 25.07%)p 2.99( 74.93%)
                                            0.0000  0.5007  0.5753 -0.3991  0.5090
    13. (1.99066) BD ( 1) C   4 - C   6  
                ( 49.87%)   0.7062* C   4 s( 25.48%)p 2.92( 74.52%)
                                            0.0000  0.5048  0.6629 -0.3893 -0.3927
                ( 50.13%)   0.7080* C   6 s( 25.37%)p 2.94( 74.63%)
                                            0.0000  0.5037 -0.6879  0.3972  0.3395
    14. (1.98937) BD ( 1) C   4 - H  17  
                ( 51.38%)   0.7168* C   4 s( 24.95%)p 3.01( 75.05%)
                                            0.0000  0.4995 -0.4185 -0.5699  0.5006
                ( 48.62%)   0.6973* H  17 s(100.00%)
                                            1.0000
    15. (1.99043) BD ( 1) C   4 - H  18  
                ( 51.63%)   0.7185* C   4 s( 23.98%)p 3.17( 76.02%)
                                            0.0000  0.4897  0.3032  0.6463  0.5006
                ( 48.37%)   0.6955* H  18 s(100.00%)
                                            1.0000
    16. (1.97917) BD ( 1) C   5 - C   9  
                ( 50.01%)   0.7072* C   5 s( 25.67%)p 2.90( 74.33%)
                                            0.0001  0.5067 -0.5606 -0.5742 -0.3151
                ( 49.99%)   0.7070* C   9 s( 25.62%)p 2.90( 74.38%)
                                            0.0001  0.5061  0.6337  0.5419  0.2204
    17. (1.98123) BD ( 1) C   5 - H  19  
                ( 51.51%)   0.7177* C   5 s( 23.59%)p 3.24( 76.41%)
                                            0.0000  0.4856 -0.4340  0.5909  0.4761
                ( 48.49%)   0.6963* H  19 s(100.00%)
                                            1.0000
    18. (1.98964) BD ( 1) C   6 - H  20  
                ( 51.28%)   0.7161* C   6 s( 24.69%)p 3.05( 75.31%)
                                            0.0000  0.4969 -0.2536 -0.7268 -0.4007
                ( 48.72%)   0.6980* H  20 s(100.00%)
                                            1.0000
    19. (1.98925) BD ( 1) C   6 - H  21  
                ( 51.43%)   0.7171* C   6 s( 24.51%)p 3.08( 75.49%)
                                            0.0000  0.4951  0.5569 -0.2056  0.6344
                ( 48.57%)   0.6969* H  21 s(100.00%)
                                            1.0000
    20. (1.98887) BD ( 1) C   7 - H  22  
                ( 51.70%)   0.7190* C   7 s( 24.90%)p 3.02( 75.10%)
                                            0.0000  0.4990 -0.2621 -0.6720 -0.4804
                ( 48.30%)   0.6950* H  22 s(100.00%)
                                            1.0000
    21. (1.98774) BD ( 1) C   7 - H  23  
                ( 51.18%)   0.7154* C   7 s( 24.53%)p 3.08( 75.47%)
                                            0.0000  0.4953  0.4161  0.5687 -0.5081
                ( 48.82%)   0.6987* H  23 s(100.00%)
                                            1.0000
    22. (1.98980) BD ( 1) O   8 - H  24  
                ( 59.31%)   0.7701* O   8 s( 16.76%)p 4.97( 83.24%)
                                            0.0000 -0.4093 -0.3728 -0.4686  0.6884
                ( 40.69%)   0.6379* H  24 s(100.00%)
                                           -1.0000
    23. (1.99050) BD ( 1) C   9 - C  10  
                ( 48.97%)   0.6998* C   9 s( 25.53%)p 2.92( 74.47%)
                                            0.0000  0.5053  0.2650 -0.5249 -0.6316
                ( 51.03%)   0.7143* C  10 s( 25.97%)p 2.85( 74.03%)
                                            0.0001  0.5096 -0.2101  0.5556  0.6224
    24. (1.98923) BD ( 1) C   9 - C  11  
                ( 48.96%)   0.6997* C   9 s( 24.40%)p 3.10( 75.60%)
                                            0.0000  0.4940 -0.6891  0.4551 -0.2721
                ( 51.04%)   0.7144* C  11 s( 25.73%)p 2.89( 74.27%)
                                            0.0001  0.5072  0.7083 -0.4213  0.2520
    25. (1.98365) BD ( 1) C   9 - H  25  
                ( 51.10%)   0.7149* C   9 s( 24.45%)p 3.09( 75.55%)
                                            0.0000  0.4944 -0.2310 -0.4730  0.6917
                ( 48.90%)   0.6993* H  25 s(100.00%)
                                            1.0000
    26. (1.99440) BD ( 1) C  10 - H  26  
                ( 51.83%)   0.7199* C  10 s( 24.83%)p 3.03( 75.17%)
                                            0.0000  0.4983  0.1689  0.4292 -0.7341
                ( 48.17%)   0.6940* H  26 s(100.00%)
                                            1.0000
    27. (1.99383) BD ( 1) C  10 - H  27  
                ( 51.93%)   0.7206* C  10 s( 24.97%)p 3.01( 75.03%)
                                            0.0000  0.4997  0.6987 -0.4556  0.2334
                ( 48.07%)   0.6933* H  27 s(100.00%)
                                            1.0000
    28. (1.99396) BD ( 1) C  10 - H  28  
                ( 51.90%)   0.7204* C  10 s( 24.23%)p 3.13( 75.77%)
                                            0.0000  0.4923 -0.6627 -0.5472 -0.1383
                ( 48.10%)   0.6936* H  28 s(100.00%)
                                            1.0000
    29. (1.99510) BD ( 1) C  11 - H  29  
                ( 51.83%)   0.7200* C  11 s( 24.72%)p 3.05( 75.28%)
                                            0.0000  0.4972 -0.2697  0.5253  0.6357
                ( 48.17%)   0.6940* H  29 s(100.00%)
                                            1.0000
    30. (1.99484) BD ( 1) C  11 - H  30  
                ( 51.78%)   0.7195* C  11 s( 24.65%)p 3.06( 75.35%)
                                            0.0000  0.4965 -0.6286 -0.5695 -0.1845
                ( 48.22%)   0.6944* H  30 s(100.00%)
                                            1.0000
    31. (1.99511) BD ( 1) C  11 - H  31  
                ( 51.75%)   0.7193* C  11 s( 24.90%)p 3.02( 75.10%)
                                            0.0000  0.4990  0.1742  0.4715 -0.7059
                ( 48.25%)   0.6947* H  31 s(100.00%)
                                            1.0000
    32. (1.99997) CR ( 1) C   1           s(100.00%)
                                            1.0000  0.0000  0.0001  0.0000  0.0000
    33. (1.99997) CR ( 1) C   2           s(100.00%)
                                            1.0000  0.0000  0.0001  0.0000  0.0000
    34. (1.99988) CR ( 1) C   3           s(100.00%)
                                            1.0000  0.0000  0.0000  0.0001  0.0000
    35. (1.99996) CR ( 1) C   4           s(100.00%)
                                            1.0000  0.0000  0.0000  0.0000  0.0001
    36. (1.99994) CR ( 1) C   5           s(100.00%)
                                            1.0000 -0.0001  0.0000  0.0000  0.0001
    37. (1.99996) CR ( 1) C   6           s(100.00%)
                                            1.0000  0.0000  0.0000  0.0000  0.0001
    38. (1.99996) CR ( 1) C   7           s(100.00%)
                                            1.0000  0.0000  0.0000  0.0000 -0.0001
    39. (1.99999) CR ( 1) O   8           s(100.00%)
                                            1.0000  0.0000  0.0000  0.0000  0.0000
    40. (1.99996) CR ( 1) C   9           s(100.00%)
                                            1.0000  0.0000 -0.0001  0.0000  0.0000
    41. (1.99997) CR ( 1) C  10           s(100.00%)
                                            1.0000  0.0000  0.0000 -0.0001  0.0000
    42. (1.99997) CR ( 1) C  11           s(100.00%)
                                            1.0000  0.0000 -0.0001  0.0000  0.0000
    43. (1.99381) LP ( 1) O   8           s( 67.05%)p 0.49( 32.95%)
                                            0.0000  0.8189 -0.0276  0.1277  0.5589
    44. (1.97713) LP ( 2) O   8           s(  0.07%)p99.99( 99.93%)
                                            0.0000  0.0266 -0.8889  0.4209 -0.1791
    45. (0.00998) BD*( 1) C   1 - C   2  
                ( 49.04%)   0.7003* C   1 s( 25.77%)p 2.88( 74.23%)
                                           -0.0001 -0.5076  0.6655 -0.4095 -0.3630
                ( 50.96%)  -0.7139* C   2 s( 25.11%)p 2.98( 74.89%)
                                            0.0000 -0.5011 -0.6517  0.4268  0.3770
    46. (0.00600) BD*( 1) C   1 - H  12  
                ( 48.22%)   0.6944* C   1 s( 24.81%)p 3.03( 75.19%)
                                            0.0000 -0.4981  0.2847  0.6930  0.4367
                ( 51.78%)  -0.7196* H  12 s(100.00%)
                                           -1.0000
    47. (0.00521) BD*( 1) C   1 - H  13  
                ( 48.24%)   0.6945* C   1 s( 24.68%)p 3.05( 75.32%)
                                            0.0000 -0.4968 -0.4089 -0.5345  0.5481
                ( 51.76%)  -0.7195* H  13 s(100.00%)
                                           -1.0000
    48. (0.00511) BD*( 1) C   1 - H  14  
                ( 48.14%)   0.6938* C   1 s( 24.75%)p 3.04( 75.25%)
                                            0.0000 -0.4975 -0.5558  0.2578 -0.6142
                ( 51.86%)  -0.7202* H  14 s(100.00%)
                                           -1.0000
    49. (0.01570) BD*( 1) C   2 - C   6  
                ( 50.35%)   0.7096* C   2 s( 25.09%)p 2.99( 74.91%)
                                            0.0000  0.5009 -0.4073 -0.5243  0.5552
                ( 49.65%)  -0.7046* C   6 s( 25.43%)p 2.93( 74.57%)
                                            0.0001  0.5043  0.3903  0.5213 -0.5671
    50. (0.01599) BD*( 1) C   2 - C   7  
                ( 50.78%)   0.7126* C   2 s( 24.99%)p 3.00( 75.01%)
                                            0.0000  0.4999 -0.5577  0.2699 -0.6052
                ( 49.22%)  -0.7016* C   7 s( 25.29%)p 2.95( 74.71%)
                                            0.0001  0.5029  0.5362 -0.2778  0.6184
    51. (0.01214) BD*( 1) C   2 - H  15  
                ( 48.61%)   0.6972* C   2 s( 24.82%)p 3.03( 75.18%)
                                            0.0000 -0.4982 -0.3136 -0.6856 -0.4282
                ( 51.39%)  -0.7168* H  15 s(100.00%)
                                           -1.0000
    52. (0.02658) BD*( 1) C   3 - C   5  
                ( 49.40%)   0.7028* C   3 s( 26.83%)p 2.73( 73.17%)
                                            0.0000 -0.5180  0.3820  0.4569 -0.6140
                ( 50.60%)  -0.7113* C   5 s( 25.67%)p 2.90( 74.33%)
                                           -0.0001 -0.5067 -0.4080 -0.4023  0.6442
    53. (0.02700) BD*( 1) C   3 - C   7  
                ( 50.58%)   0.7112* C   3 s( 25.94%)p 2.86( 74.06%)
                                            0.0000  0.5093  0.6763 -0.4227 -0.3234
                ( 49.42%)  -0.7030* C   7 s( 25.28%)p 2.96( 74.72%)
                                            0.0000  0.5028 -0.6861  0.3845  0.3587
    54. (0.02152) BD*( 1) C   3 - O   8  
                ( 58.98%)   0.7680* C   3 s( 21.48%)p 3.66( 78.52%)
                                           -0.0001  0.4634  0.2938  0.7568  0.3551
                ( 41.02%)  -0.6405* O   8 s( 16.12%)p 5.20( 83.88%)
                                            0.0000  0.4015 -0.2648 -0.7662 -0.4262
    55. (0.02240) BD*( 1) C   3 - H  16  
                ( 49.44%)   0.7031* C   3 s( 25.76%)p 2.88( 74.24%)
                                            0.0000 -0.5075  0.5571 -0.1994  0.6264
                ( 50.56%)  -0.7111* H  16 s(100.00%)
                                           -1.0000
    56. (0.01734) BD*( 1) C   4 - C   5  
                ( 49.73%)   0.7052* C   4 s( 25.59%)p 2.91( 74.41%)
                                           -0.0001 -0.5059  0.5417 -0.3256  0.5870
                ( 50.27%)  -0.7090* C   5 s( 25.07%)p 2.99( 74.93%)
                                            0.0000 -0.5007 -0.5753  0.3991 -0.5090
    57. (0.01242) BD*( 1) C   4 - C   6  
                ( 50.13%)   0.7080* C   4 s( 25.48%)p 2.92( 74.52%)
                                            0.0000  0.5048  0.6629 -0.3893 -0.3927
                ( 49.87%)  -0.7062* C   6 s( 25.37%)p 2.94( 74.63%)
                                            0.0000  0.5037 -0.6879  0.3972  0.3395
    58. (0.00905) BD*( 1) C   4 - H  17  
                ( 48.62%)   0.6973* C   4 s( 24.95%)p 3.01( 75.05%)
                                            0.0000 -0.4995  0.4185  0.5699 -0.5006
                ( 51.38%)  -0.7168* H  17 s(100.00%)
                                           -1.0000
    59. (0.00804) BD*( 1) C   4 - H  18  
                ( 48.37%)   0.6955* C   4 s( 23.98%)p 3.17( 76.02%)
                                            0.0000 -0.4897 -0.3032 -0.6463 -0.5006
                ( 51.63%)  -0.7185* H  18 s(100.00%)
                                           -1.0000
    60. (0.02195) BD*( 1) C   5 - C   9  
                ( 49.99%)   0.7070* C   5 s( 25.67%)p 2.90( 74.33%)
                                           -0.0001 -0.5067  0.5606  0.5742  0.3151
                ( 50.01%)  -0.7072* C   9 s( 25.62%)p 2.90( 74.38%)
                                           -0.0001 -0.5061 -0.6337 -0.5419 -0.2204
    61. (0.01027) BD*( 1) C   5 - H  19  
                ( 48.49%)   0.6963* C   5 s( 23.59%)p 3.24( 76.41%)
                                            0.0000 -0.4856  0.4340 -0.5909 -0.4761
                ( 51.51%)  -0.7177* H  19 s(100.00%)
                                           -1.0000
    62. (0.01152) BD*( 1) C   6 - H  20  
                ( 48.72%)   0.6980* C   6 s( 24.69%)p 3.05( 75.31%)
                                            0.0000 -0.4969  0.2536  0.7268  0.4007
                ( 51.28%)  -0.7161* H  20 s(100.00%)
                                           -1.0000
    63. (0.00848) BD*( 1) C   6 - H  21  
                ( 48.57%)   0.6969* C   6 s( 24.51%)p 3.08( 75.49%)
                                            0.0000 -0.4951 -0.5569  0.2056 -0.6344
                ( 51.43%)  -0.7171* H  21 s(100.00%)
                                           -1.0000
    64. (0.01110) BD*( 1) C   7 - H  22  
                ( 48.30%)   0.6950* C   7 s( 24.90%)p 3.02( 75.10%)
                                            0.0000 -0.4990  0.2621  0.6720  0.4804
                ( 51.70%)  -0.7190* H  22 s(100.00%)
                                           -1.0000
    65. (0.00944) BD*( 1) C   7 - H  23  
                ( 48.82%)   0.6987* C   7 s( 24.53%)p 3.08( 75.47%)
                                            0.0000 -0.4953 -0.4161 -0.5687  0.5081
                ( 51.18%)  -0.7154* H  23 s(100.00%)
                                           -1.0000
    66. (0.00764) BD*( 1) O   8 - H  24  
                ( 40.69%)   0.6379* O   8 s( 16.76%)p 4.97( 83.24%)
                                            0.0000  0.4093  0.3728  0.4686 -0.6884
                ( 59.31%)  -0.7701* H  24 s(100.00%)
                                            1.0000
    67. (0.01090) BD*( 1) C   9 - C  10  
                ( 51.03%)   0.7143* C   9 s( 25.53%)p 2.92( 74.47%)
                                            0.0000  0.5053  0.2650 -0.5249 -0.6316
                ( 48.97%)  -0.6998* C  10 s( 25.97%)p 2.85( 74.03%)
                                            0.0001  0.5096 -0.2101  0.5556  0.6224
    68. (0.01027) BD*( 1) C   9 - C  11  
                ( 51.04%)   0.7144* C   9 s( 24.40%)p 3.10( 75.60%)
                                            0.0000  0.4940 -0.6891  0.4551 -0.2721
                ( 48.96%)  -0.6997* C  11 s( 25.73%)p 2.89( 74.27%)
                                            0.0001  0.5072  0.7083 -0.4213  0.2520
    69. (0.01090) BD*( 1) C   9 - H  25  
                ( 48.90%)   0.6993* C   9 s( 24.45%)p 3.09( 75.55%)
                                            0.0000 -0.4944  0.2310  0.4730 -0.6917
                ( 51.10%)  -0.7149* H  25 s(100.00%)
                                           -1.0000
    70. (0.00658) BD*( 1) C  10 - H  26  
                ( 48.17%)   0.6940* C  10 s( 24.83%)p 3.03( 75.17%)
                                            0.0000 -0.4983 -0.1689 -0.4292  0.7341
                ( 51.83%)  -0.7199* H  26 s(100.00%)
                                           -1.0000
    71. (0.00709) BD*( 1) C  10 - H  27  
                ( 48.07%)   0.6933* C  10 s( 24.97%)p 3.01( 75.03%)
                                            0.0000 -0.4997 -0.6987  0.4556 -0.2334
                ( 51.93%)  -0.7206* H  27 s(100.00%)
                                           -1.0000
    72. (0.00503) BD*( 1) C  10 - H  28  
                ( 48.10%)   0.6936* C  10 s( 24.23%)p 3.13( 75.77%)
                                            0.0000 -0.4923  0.6627  0.5472  0.1383
[...]
   22      -0.0719       -1.0329       0.9609        -0.9675       0.8956
   38     200.0201       -0.0012     200.0213         0.0021     200.0179
 Sum      213.0558      -26.3566     239.4124       -29.0587     242.1145

 Contributions to Isotropic shielding for atom    8 (   349.5071 ppm):
                         Standard Origin              Atomic Origin
 NLMO      Total    Paramagnetic  Diamagnetic   Paramagnetic  Diamagnetic
   10      27.4887        9.4249      18.0638        16.8538      10.6349
   11      -0.2201       -0.4634       0.2433        -1.5274       1.3073
   17      -0.3150       -0.7156       0.4006        -1.3043       0.9893
   20      -0.6983       -1.1447       0.4465        -1.0014       0.3031
   21      -0.7766       -1.1162       0.3396        -1.7202       0.9435
   22      16.5384        7.4229       9.1155         2.1393      14.3992
   39     271.1666       -0.0060     271.1726        -0.0040     271.1706
   43      32.5970       -2.5791      35.1762        -4.9114      37.5084
   44       2.4829      -36.3014      38.7843       -37.5106      39.9935
 Sum      348.2637      -25.4785     373.7423       -28.9860     377.2497

 Contributions to Isotropic shielding for atom    9 (   211.3200 ppm):
                         Standard Origin              Atomic Origin
 NLMO      Total    Paramagnetic  Diamagnetic   Paramagnetic  Diamagnetic
   14      -0.4904       -0.9170       0.4266        -1.4154       0.9250
   16       4.4417       -9.4818      13.9235        -3.3696       7.8113
   23       0.3815       -7.1043       7.4858        -7.1263       7.5078
   24      -2.5171       -4.7410       2.2239        -9.9321       7.4150
   25       4.3700       -1.8957       6.2657        -6.5363      10.9063
   26       0.7567       -0.2715       1.0282        -0.2733       1.0300
   27       0.5689       -0.5064       1.0753        -0.4433       1.0122
   28       0.5842       -0.0782       0.6624        -0.4375       1.0217
   29       0.7338       -0.5272       1.2610        -0.2828       1.0166
   30       0.6369       -0.4046       1.0415        -0.3841       1.0210
   31       1.0986       -0.3550       1.4535         0.0722       1.0264
   40     199.9272       -0.0021     199.9293         0.0025     199.9247
 Sum      210.4919      -26.2847     236.7767       -30.1261     240.6180

 Contributions to Isotropic shielding for atom   10 (   222.7774 ppm):
                         Standard Origin              Atomic Origin
 NLMO      Total    Paramagnetic  Diamagnetic   Paramagnetic  Diamagnetic
   23       3.0959       -8.6772      11.7732        -4.8849       7.9808
   24      -0.2952       -0.0919      -0.2033        -1.0000       0.7048
   25       0.3005       -0.1699       0.4704        -0.7109       1.0114
   26       6.7999       -4.7334      11.5333        -4.3097      11.1097
   27       6.6380       -6.0169      12.6549        -4.5085      11.1466
   28       5.7065        2.5270       3.1795        -5.3746      11.0811
   41     200.0795       -0.0015     200.0811         0.0010     200.0785
 Sum      222.3252      -17.1639     239.4891       -20.7876     243.1128

 Contributions to Isotropic shielding for atom   11 (   220.0446 ppm):
                         Standard Origin              Atomic Origin
 NLMO      Total    Paramagnetic  Diamagnetic   Paramagnetic  Diamagnetic
   17      -0.2931       -0.1881      -0.1050        -1.2662       0.9731
   23      -0.4815        0.0525      -0.5340        -1.2198       0.7383
   24       4.7490      -11.7489      16.4979        -3.2836       8.0326
   25       0.2778        0.1903       0.0875        -0.7592       1.0370
   29       4.6112       -2.8954       7.5066        -6.5055      11.1167
   30       4.5367        1.5784       2.9583        -6.5574      11.0941
   31       6.3423       -5.0248      11.3671        -4.7777      11.1200
   42     200.0750       -0.0040     200.0790         0.0024     200.0726
 Sum      219.8174      -18.0401     237.8575       -24.3669     244.1843

 Contributions to Isotropic shielding for atom   12 (    32.7387 ppm):
                         Standard Origin              Atomic Origin
 NLMO      Total    Paramagnetic  Diamagnetic   Paramagnetic  Diamagnetic
    1       1.6563       -1.2583       2.9146         0.7594       0.8969
    2      26.3580        0.3203      26.0377         0.4214      25.9367
    3       1.9740        1.4535       0.5205         0.1526       1.8214
    4       1.9552        1.6850       0.2702         0.1275       1.8277
 Sum       31.9435        2.2005      29.7430         1.4608      30.4827

 Contributions to Isotropic shielding for atom   13 (    32.5214 ppm):
                         Standard Origin              Atomic Origin
 NLMO      Total    Paramagnetic  Diamagnetic   Paramagnetic  Diamagnetic
    1       1.4164       -0.4808       1.8972         0.4092       1.0072
    2       1.9613        1.2088       0.7525         0.1246       1.8367
    3      26.3827        0.1631      26.2196         0.4276      25.9552
    4       1.9071        2.2988      -0.3917         0.0644       1.8427
 Sum       31.6675        3.1898      28.4777         1.0258      30.6417

 Contributions to Isotropic shielding for atom   14 (    32.4136 ppm):
                         Standard Origin              Atomic Origin
 NLMO      Total    Paramagnetic  Diamagnetic   Paramagnetic  Diamagnetic
    1       1.3638       -0.2794       1.6432         0.3529       1.0109
    2       1.9448        1.3762       0.5686         0.1073       1.8375
    3       1.9082        2.2344      -0.3262         0.0726       1.8356
    4      26.3393        0.1245      26.2148         0.4396      25.8997
    5      -0.1332        0.6339      -0.7671        -1.0279       0.8947
 Sum       31.4229        4.0895      27.3334        -0.0556      31.4785

 Contributions to Isotropic shielding for atom   15 (    32.4006 ppm):
                         Standard Origin              Atomic Origin
 NLMO      Total    Paramagnetic  Diamagnetic   Paramagnetic  Diamagnetic
    1       0.8034        2.1891      -1.3858        -0.1439       0.9472
    3       0.2630       -0.7605       1.0234        -0.6966       0.9595
    5       1.3999        0.6293       0.7706         0.5300       0.8699
    6       1.4346        0.3307       1.1039         0.5902       0.8444
    7      26.3266       -0.0019      26.3285         0.4215      25.9051
   10       0.0416       -0.3437       0.3853        -1.1931       1.2346
 Sum       30.2690        2.0431      28.2259        -0.4918      30.7608

 Contributions to Isotropic shielding for atom   16 (    32.0124 ppm):
                         Standard Origin              Atomic Origin
 NLMO      Total    Paramagnetic  Diamagnetic   Paramagnetic  Diamagnetic
    8       0.9624        0.1556       0.8068        -0.1603       1.1227
    9       0.8563        0.4603       0.3960        -0.1650       1.0213
   10       0.5513        1.3483      -0.7970        -1.0415       1.5928
   11      26.7600        0.3413      26.4187         0.7387      26.0213
   22       0.3270       -0.7685       1.0955        -0.6452       0.9722
   31      -0.3188       -1.5116       1.1929        -0.8531       0.5344
 Sum       29.1382        0.0254      29.1129        -2.1264      31.2646

 Contributions to Isotropic shielding for atom   17 (    32.4362 ppm):
                         Standard Origin              Atomic Origin
 NLMO      Total    Paramagnetic  Diamagnetic   Paramagnetic  Diamagnetic
   12       1.3379        0.5648       0.7731         0.4141       0.9238
   13       1.0600        1.0508       0.0091         0.0429       1.0171
   14      26.4861        0.0706      26.4155         0.4868      25.9993
   15       2.0607        1.7131       0.3477         0.3095       1.7513
   16      -0.0937        0.0112      -0.1049        -1.1804       1.0867
   25      -0.1949       -1.0412       0.8463        -0.9156       0.7207
 Sum       30.6561        2.3693      28.2868        -0.8428      31.4989

 Contributions to Isotropic shielding for atom   18 (    31.9350 ppm):
                         Standard Origin              Atomic Origin
 NLMO      Total    Paramagnetic  Diamagnetic   Paramagnetic  Diamagnetic
   10       0.1355       -0.4579       0.5934        -1.1993       1.3348
   12       1.3240        0.3382       0.9858         0.2579       1.0661
   13       1.0878        0.9036       0.1842         0.0465       1.0413
   14       1.9294        1.6608       0.2686         0.1255       1.8039
   15      26.3414        0.0296      26.3118         0.4487      25.8927
   17      -0.0402       -0.2688       0.2286        -1.1533       1.1131
 Sum       30.7779        2.2055      28.5724        -1.4740      32.2519

 Contributions to Isotropic shielding for atom   19 (    31.9266 ppm):
                         Standard Origin              Atomic Origin
 NLMO      Total    Paramagnetic  Diamagnetic   Paramagnetic  Diamagnetic
    8       1.2345        1.0806       0.1540         0.1796       1.0549
   10       0.1088       -0.4592       0.5680        -1.7325       1.8413
   12       1.1554        1.2359      -0.0805        -0.0966       1.2520
   15       0.0121       -0.5093       0.5214        -1.1367       1.1488
   16       1.0205        1.4659      -0.4455        -0.1601       1.1806
   17      26.2125       -0.1896      26.4021         0.4606      25.7519
   24      -0.0967       -0.5070       0.4103        -1.1830       1.0863
   29      -0.1430       -1.6783       1.5353        -1.0553       0.9123
 Sum       29.5041        0.4390      29.0651        -4.7239      34.2280

 Contributions to Isotropic shielding for atom   20 (    32.9029 ppm):
                         Standard Origin              Atomic Origin
 NLMO      Total    Paramagnetic  Diamagnetic   Paramagnetic  Diamagnetic
    2      -0.0531       -1.1596       1.1065        -0.9526       0.8995
    5       1.3468        0.4424       0.9044         0.5220       0.8248
   13       1.3496        0.1045       1.2451         0.4256       0.9240
   18      26.5530        0.2069      26.3461         0.4133      26.1397
   19       2.0006        1.8415       0.1590         0.2172       1.7833
 Sum       31.1969        1.4358      29.7611         0.6255      30.5713

 Contributions to Isotropic shielding for atom   21 (    32.4347 ppm):
                         Standard Origin              Atomic Origin
 NLMO      Total    Paramagnetic  Diamagnetic   Paramagnetic  Diamagnetic
    4      -0.0869       -1.3023       1.2154        -0.9721       0.8852
    5       1.0466        1.2506      -0.2040         0.1128       0.9338
   13       1.1754        1.0290       0.1464         0.1603       1.0151
   15       0.1711        0.0389       0.1322        -0.9012       1.0723
   18       2.0505        1.4261       0.6245         0.2820       1.7685
   19      26.4786       -0.0530      26.5317         0.4656      26.0131
 Sum       30.8354        2.3892      28.4461        -0.8526      31.6880

 Contributions to Isotropic shielding for atom   22 (    32.7949 ppm):
                         Standard Origin              Atomic Origin
 NLMO      Total    Paramagnetic  Diamagnetic   Paramagnetic  Diamagnetic
    2      -0.0529       -1.2648       1.2119        -0.9531       0.9002
    6       1.2489        0.6392       0.6097         0.3413       0.9077
    9       1.4378        0.1870       1.2508         0.6084       0.8294
   20      26.3469        0.2339      26.1130         0.4354      25.9115
   21       1.9343        1.4521       0.4822         0.1642       1.7701
   26      -0.3309       -1.1201       0.7892        -1.0478       0.7169
   27      -0.1156       -0.6907       0.5751        -1.0165       0.9009
 Sum       30.4684       -0.5634      31.0318        -1.4682      31.9367

 Contributions to Isotropic shielding for atom   23 (    32.9219 ppm):
                         Standard Origin              Atomic Origin
 NLMO      Total    Paramagnetic  Diamagnetic   Paramagnetic  Diamagnetic
    3      -0.0894       -1.3909       1.3015        -0.9778       0.8883
    6       1.0398        1.3713      -0.3315         0.0054       1.0344
    9       1.2293        0.8696       0.3597         0.3256       0.9037
   10      -0.1793        0.1593      -0.3386        -1.4407       1.2614
   20       2.0725        1.1886       0.8839         0.3109       1.7615
   21      26.5606        0.0384      26.5222         0.4445      26.1161
   22      -0.0285       -1.1458       1.1173        -0.7387       0.7103
 Sum       30.6049        1.0904      29.5145        -2.0708      32.6757

 Contributions to Isotropic shielding for atom   24 (    35.0853 ppm):
                         Standard Origin              Atomic Origin
 NLMO      Total    Paramagnetic  Diamagnetic   Paramagnetic  Diamagnetic
    9      -0.1933        0.2924      -0.4857        -1.2097       1.0165
   10       1.4680        2.1486      -0.6806         0.7536       0.7144
   11       0.1651        0.3161      -0.1509        -0.8913       1.0565
   21      -0.1519       -0.5427       0.3908        -1.0249       0.8730
   22      23.2199       -0.4307      23.6506        -0.0305      23.2504
   43       4.0553        0.8066       3.2487         2.1089       1.9464
   44       5.5286        2.3997       3.1289         2.3616       3.1670
 Sum       34.0918        4.9900      29.1018         2.0676      32.0242

 Contributions to Isotropic shielding for atom   25 (    32.4744 ppm):
                         Standard Origin              Atomic Origin
 NLMO      Total    Paramagnetic  Diamagnetic   Paramagnetic  Diamagnetic
   12      -0.1567        0.1983      -0.3550        -1.1919       1.0352
   16       1.6184        0.2699       1.3485         0.5860       1.0324
   23       1.0518        1.2941      -0.2423         0.0152       1.0366
   24       0.7881        2.2456      -1.4575        -0.2155       1.0036
   25      26.5009       -0.1173      26.6183         0.4826      26.0183
 Sum       29.8025        3.8906      25.9119        -0.3235      30.1260

 Contributions to Isotropic shielding for atom   26 (    32.9742 ppm):
                         Standard Origin              Atomic Origin
 NLMO      Total    Paramagnetic  Diamagnetic   Paramagnetic  Diamagnetic
   23       1.4079       -0.2679       1.6758         0.4776       0.9303
   24      -0.1021       -0.0797      -0.0224        -1.0223       0.9202
   26      26.3322        0.2583      26.0738         0.3809      25.9513
   27       2.1660        0.2417       1.9243         0.3831       1.7828
   28       1.9966        1.8681       0.1284         0.1410       1.8556
 Sum       31.8005        2.0206      29.7799         0.3603      31.4402

 Contributions to Isotropic shielding for atom   27 (    32.7061 ppm):
                         Standard Origin              Atomic Origin
 NLMO      Total    Paramagnetic  Diamagnetic   Paramagnetic  Diamagnetic
   23       1.4569       -0.4976       1.9545         0.4463       1.0106
   26       2.1649        0.2899       1.8750         0.3652       1.7997
   27      26.3305        0.3093      26.0212         0.3845      25.9460
   28       1.9856        1.6751       0.3105         0.1029       1.8827
 Sum       31.9379        1.7768      30.1611         1.2989      30.6390

 Contributions to Isotropic shielding for atom   28 (    32.5595 ppm):
                         Standard Origin              Atomic Origin
 NLMO      Total    Paramagnetic  Diamagnetic   Paramagnetic  Diamagnetic
   23       1.1173        1.0335       0.0837         0.0953       1.0220
   24      -0.1134        0.3682      -0.4816        -1.0934       0.9800
   26       2.0118        1.4989       0.5129         0.1415       1.8703
   27       2.0428        1.3073       0.7355         0.1615       1.8813
   28      26.3168       -0.0160      26.3328         0.4154      25.9014
   30      -0.1071       -1.1925       1.0855        -0.9898       0.8827
 Sum       31.2682        2.9994      28.2687        -1.2695      32.5377

 Contributions to Isotropic shielding for atom   29 (    32.3925 ppm):
                         Standard Origin              Atomic Origin
 NLMO      Total    Paramagnetic  Diamagnetic   Paramagnetic  Diamagnetic
   16      -0.0466        0.2707      -0.3174        -1.0078       0.9612
   24       1.5278       -0.5903       2.1181         0.5300       0.9978
   29      26.3674        0.2242      26.1432         0.4583      25.9091
   30       1.8641        2.3352      -0.4710         0.0121       1.8520
   31       2.0104        0.8846       1.1259         0.1715       1.8389
 Sum       31.7232        3.1244      28.5988         0.1641      31.5591

 Contributions to Isotropic shielding for atom   30 (    32.4554 ppm):
                         Standard Origin              Atomic Origin
 NLMO      Total    Paramagnetic  Diamagnetic   Paramagnetic  Diamagnetic
   23      -0.1694        0.6910      -0.8603        -1.1605       0.9912
   24       1.3279        0.1292       1.1987         0.3161       1.0118
   29       1.8614        2.1138      -0.2524         0.0096       1.8518
   30      26.3963        0.0478      26.3485         0.4591      25.9371
   31       1.9666        1.4811       0.4855         0.1150       1.8516
 Sum       31.3828        4.4628      26.9200        -0.2606      31.6435

 Contributions to Isotropic shielding for atom   31 (    32.5126 ppm):
                         Standard Origin              Atomic Origin
 NLMO      Total    Paramagnetic  Diamagnetic   Paramagnetic  Diamagnetic
    8      -0.0755        0.1444      -0.2198        -1.0579       0.9824
   24       1.6242       -1.2549       2.8791         0.7036       0.9206
   29       1.9500        1.0260       0.9240         0.1332       1.8167
   30       1.8720        1.8154       0.0565         0.0391       1.8329
   31      26.3645        0.3104      26.0541         0.4025      25.9620
 Sum       31.7352        2.0413      29.6939         0.2205      31.5147
 
 1\1\GINC-COMPUTE-10-6\SP\RHF\STO-3G\C10H20O1\YTSAI.IQUIR\03-Aug-2021\0
 \\# rhf/STO-3G nmr pop=nbo\\comment\\0,1\C,0,-2.422026469,-0.957101452
 ,-2.074707973\C,0,-1.768828047,-0.769749008,-0.705693177\C,0,0.3527514
 75,-1.168995595,0.648987808\C,0,-1.043393192,0.939625192,1.016292816\C
 ,0,0.345926089,0.282434555,1.172835323\C,0,-1.729825598,0.711684459,-0
 .326025452\C,0,-0.35725708,-1.368577583,-0.694013492\O,0,-0.318188799,
 -1.976819139,1.626264416\C,0,1.513173573,1.188434896,0.674756092\C,0,1
 .750712396,1.22450739,-0.832985016\C,0,2.829673428,0.801635742,1.36775
 61\H,0,-1.855397856,-0.446012132,-2.86050901\H,0,-2.479793316,-2.01921
 2763,-2.335070996\H,0,-3.441005204,-0.555950519,-2.076682212\H,0,-2.38
 3831388,-1.30197679,0.031920648\H,0,1.376001381,-1.551787926,0.5850059
 71\H,0,-0.984067941,2.015403602,1.21957997\H,0,-1.699434566,0.52772740
 3,1.795823353\H,0,0.483868938,0.22256905,2.26398031\H,0,-1.232481972,1
 .292957333,-1.108121761\H,0,-2.754030081,1.101284026,-0.267930214\H,0,
 0.233292967,-0.93383439,-1.505941125\H,0,-0.432588241,-2.443012475,-0.
 905902029\H,0,-0.266473314,-2.901004136,1.328292976\H,0,1.291466506,2.
 216277756,0.992300228\H,0,2.09631715,0.258452755,-1.212667526\H,0,0.85
 7251437,1.522176177,-1.382671726\H,0,2.528735469,1.958055463,-1.074973
 308\H,0,2.720727685,0.82448084,2.457185393\H,0,3.625982089,1.506395396
 ,1.103837543\H,0,3.16274248,-0.200068127,1.07907607\\Version=EM64L-G09
 RevC.01\State=1-A\HF=-459.6140729\RMSD=7.567e-09\Dipole=0.2070661,-0.1
 169488,-0.4161966\Quadrupole=-0.2039311,2.7837672,-2.5798361,-0.409853
 6,0.2266307,1.1781716\PG=C01 [X(C10H20O1)]\\@


 In the beginning there was nothing, which exploded.
 Job cpu time:  0 days  0 hours  0 minutes 24.5 seconds.
 File lengths (MBytes):  RWF=      5 Int=      0 D2E=      0 Chk=      1 Scr=      1
 Normal termination of Gaussian 09 at Tue Aug  3 16:35:48 2021.
