 Entering Gaussian System, Link 0=g09
 Input=/home/ytsai.iquir/menthol/03_menthol_M0052_MMFF_NMR_rhf_STO-3G_nbo.gjc
 Output=/home/ytsai.iquir/menthol/03_menthol_M0052_MMFF_NMR_rhf_STO-3G_nbo.log
 Initial command:
 /share/apps/Gaussian09/EM64T.SSE4.2-enabled/g09/l1.exe /tmp/Gau-10034.inp -scrdir=/tmp/
 Entering Link 1 = /share/apps/Gaussian09/EM64T.SSE4.2-enabled/g09/l1.exe PID=     10035.
  
 Copyright (c) 1988,1990,1992,1993,1995,1998,2003,2009,2011,
            Gaussian, Inc.  All Rights Reserved.
  
 This is part of the Gaussian(R) 09 program.  It is based on
 the Gaussian(R) 03 system (copyright 2003, Gaussian, Inc.),
 the Gaussian(R) 98 system (copyright 1998, Gaussian, Inc.),
 the Gaussian(R) 94 system (copyright 1995, Gaussian, Inc.),
 the Gaussian 92(TM) system (copyright 1992, Gaussian, Inc.),
 the Gaussian 90(TM) system (copyright 1990, Gaussian, Inc.),
 the Gaussian 88(TM) system (copyright 1988, Gaussian, Inc.),
 the Gaussian 86(TM) system (copyright 1986, Carnegie Mellon
 University), and the Gaussian 82(TM) system (copyright 1983,
 Carnegie Mellon University). Gaussian is a federally registered
 trademark of Gaussian, Inc.
  
 This software contains proprietary and confidential information,
 including trade secrets, belonging to Gaussian, Inc.
  
 This software is provided under written license and may be
 used, copied, transmitted, or stored only in accord with that
 written license.
  
 The following legend is applicable only to US Government
 contracts under FAR:
  
                    RESTRICTED RIGHTS LEGEND
  
 Use, reproduction and disclosure by the US Government is
 subject to restrictions as set forth in subparagraphs (a)
 and (c) of the Commercial Computer Software - Restricted
 Rights clause in FAR 52.227-19.
  
 Gaussian, Inc.
 340 Quinnipiac St., Bldg. 40, Wallingford CT 06492
  
  
 ---------------------------------------------------------------
 Warning -- This program may not be used in any manner that
 competes with the business of Gaussian, Inc. or will provide
 assistance to any competitor of Gaussian, Inc.  The licensee
 of this program is prohibited from giving any competitor of
 Gaussian, Inc. access to this program.  By using this program,
 the user acknowledges that Gaussian, Inc. is engaged in the
 business of creating and licensing software in the field of
 computational chemistry and represents and warrants to the
 licensee that it is not a competitor of Gaussian, Inc. and that
 it will not use this program in any manner prohibited above.
 ---------------------------------------------------------------
  

 Cite this work as:
 Gaussian 09, Revision C.01,
 M. J. Frisch, G. W. Trucks, H. B. Schlegel, G. E. Scuseria, 
 M. A. Robb, J. R. Cheeseman, G. Scalmani, V. Barone, B. Mennucci, 
 G. A. Petersson, H. Nakatsuji, M. Caricato, X. Li, H. P. Hratchian, 
 A. F. Izmaylov, J. Bloino, G. Zheng, J. L. Sonnenberg, M. Hada, 
 M. Ehara, K. Toyota, R. Fukuda, J. Hasegawa, M. Ishida, T. Nakajima, 
 Y. Honda, O. Kitao, H. Nakai, T. Vreven, J. A. Montgomery, Jr., 
 J. E. Peralta, F. Ogliaro, M. Bearpark, J. J. Heyd, E. Brothers, 
 K. N. Kudin, V. N. Staroverov, T. Keith, R. Kobayashi, J. Normand, 
 K. Raghavachari, A. Rendell, J. C. Burant, S. S. Iyengar, J. Tomasi, 
 M. Cossi, N. Rega, J. M. Millam, M. Klene, J. E. Knox, J. B. Cross, 
 V. Bakken, C. Adamo, J. Jaramillo, R. Gomperts, R. E. Stratmann, 
 O. Yazyev, A. J. Austin, R. Cammi, C. Pomelli, J. W. Ochterski, 
 R. L. Martin, K. Morokuma, V. G. Zakrzewski, G. A. Voth, 
 P. Salvador, J. J. Dannenberg, S. Dapprich, A. D. Daniels, 
 O. Farkas, J. B. Foresman, J. V. Ortiz, J. Cioslowski, 
 and D. J. Fox, Gaussian, Inc., Wallingford CT, 2010.
 
 ******************************************
 Gaussian 09:  EM64L-G09RevC.01 23-Sep-2011
                 3-Aug-2021 
 ******************************************
 %nprocshared=4
 Will use up to    4 processors via shared memory.
 ------------------------
 # rhf/STO-3G nmr pop=nbo
 ------------------------
 1/38=1/1;
 2/12=2,17=6,18=5,40=1/2;
 3/6=3,11=1,16=1,25=1,30=1,116=1/1,2,8,3;
 4//1;
 5/5=2,38=5/2;
 8/6=1,10=90,11=11/1;
 10/13=100,45=16/2;
 6/7=2,8=2,9=2,10=2,28=1,64=1/1,7;
 99/9=1/99;
 -------
 comment
 -------
 Charge =  0 Multiplicity = 1
 Symbolic Z-Matrix:
 6                     0.13909   0.70995  -3.60338 
 6                    -0.24801   0.38931  -2.16141 
 6                     0.53335  -1.13218  -0.23777 
 6                    -0.25005   1.22842   0.23122 
 6                    -0.43311  -0.26345   0.58776 
 6                     0.24044   1.47227  -1.20018 
 6                     0.27976  -0.99286  -1.74644 
 8                     0.40202  -2.50403   0.12245 
 6                    -0.38545  -0.54846   2.11787 
 6                    -1.41625   0.28964   2.88238 
 6                     0.99972  -0.36428   2.74463 
 1                    -0.22986  -0.06361  -4.28508 
 1                    -0.29146   1.66676  -3.91699 
 1                     1.22632   0.77517  -3.71897 
 1                    -1.3453    0.36433  -2.11396 
 1                     1.56675  -0.83454  -0.02221 
 1                     0.44821   1.72312   0.91443 
 1                    -1.21414   1.73602   0.36434 
 1                    -1.44973  -0.54758   0.27423 
 1                     1.33814   1.49766  -1.20504 
 1                    -0.09272   2.46378  -1.52955 
 1                     1.21872  -1.22304  -2.26737 
 1                    -0.42845  -1.75984  -2.08732 
 1                     1.03805  -3.00919  -0.4123 
 1                    -0.66735  -1.59944   2.26698 
 1                    -1.16497   1.35506   2.86952 
 1                    -2.41538   0.16705   2.4514 
 1                    -1.46646  -0.02564   3.93034 
 1                     1.35849   0.66499   2.65373 
 1                     1.73884  -1.02641   2.28431 
 1                     0.97079  -0.60899   3.81239 
 
                          Input orientation:                          
 ---------------------------------------------------------------------
 Center     Atomic      Atomic             Coordinates (Angstroms)
 Number     Number       Type             X           Y           Z
 ---------------------------------------------------------------------
      1          6           0        0.139094    0.709946   -3.603378
      2          6           0       -0.248013    0.389312   -2.161412
      3          6           0        0.533353   -1.132178   -0.237770
      4          6           0       -0.250054    1.228417    0.231217
      5          6           0       -0.433105   -0.263452    0.587764
      6          6           0        0.240438    1.472268   -1.200180
      7          6           0        0.279763   -0.992859   -1.746437
      8          8           0        0.402022   -2.504026    0.122447
      9          6           0       -0.385452   -0.548462    2.117865
     10          6           0       -1.416252    0.289642    2.882382
     11          6           0        0.999720   -0.364285    2.744633
     12          1           0       -0.229855   -0.063605   -4.285081
     13          1           0       -0.291459    1.666760   -3.916989
     14          1           0        1.226318    0.775167   -3.718971
     15          1           0       -1.345298    0.364329   -2.113960
     16          1           0        1.566745   -0.834539   -0.022214
     17          1           0        0.448214    1.723115    0.914429
     18          1           0       -1.214141    1.736016    0.364340
     19          1           0       -1.449727   -0.547575    0.274229
     20          1           0        1.338136    1.497665   -1.205036
     21          1           0       -0.092725    2.463782   -1.529554
     22          1           0        1.218719   -1.223040   -2.267372
     23          1           0       -0.428447   -1.759842   -2.087319
     24          1           0        1.038051   -3.009189   -0.412305
     25          1           0       -0.667350   -1.599436    2.266975
     26          1           0       -1.164970    1.355064    2.869521
     27          1           0       -2.415381    0.167054    2.451400
     28          1           0       -1.466460   -0.025642    3.930342
     29          1           0        1.358485    0.664989    2.653730
     30          1           0        1.738840   -1.026407    2.284311
     31          1           0        0.970794   -0.608989    3.812393
 ---------------------------------------------------------------------
                    Distance matrix (angstroms):
                    1          2          3          4          5
     1  C    0.000000
     2  C    1.527064   0.000000
     3  C    3.856965   2.574075   0.000000
     4  C    3.889006   2.535503   2.531024   0.000000
     5  C    4.340575   2.831665   1.539556   1.544768   0.000000
     6  C    2.523245   1.528183   2.791983   1.532626   2.581304
     7  C    2.523403   1.536603   1.536162   3.020909   2.547295
     8  O    4.927527   3.742988   1.424419   3.790536   2.436007
     9  C    5.881442   4.382981   2.594984   2.595202   1.557148
    10  C    6.682877   5.178279   3.944348   3.044666   2.556905
    11  C    6.495529   5.118010   3.114785   3.227366   2.591378
    12  H    1.095091   2.171505   4.255004   4.697518   4.881175
    13  H    1.095089   2.171592   4.695852   4.171508   4.902916
    14  H    1.095295   2.179112   4.029507   4.241356   4.730791
    15  H    2.131018   1.098595   3.047778   2.728748   2.919848
    16  H    4.153115   3.060609   1.096792   2.760575   2.167398
    17  H    4.640328   3.424114   3.080180   1.095026   2.197699
    18  H    4.315884   3.020999   3.412156   1.097653   2.158196
    19  H    4.375106   2.873016   2.129908   2.143645   1.101158
    20  H    2.794682   2.158464   2.915365   2.158162   3.074567
    21  H    2.725881   2.174117   3.871900   2.156663   3.469395
    22  H    2.585911   2.182249   2.144124   3.796035   3.435278
    23  H    2.953031   2.157988   2.177121   3.786440   3.065171
    24  H    4.982273   4.032759   1.951501   4.475560   3.271622
    25  H    6.359611   4.872533   2.816694   3.509302   2.158581
    26  H    6.634394   5.204207   4.327346   2.795310   2.891649
    27  H    6.593968   5.101462   4.196983   3.277857   2.754613
    28  H    7.737948   6.226256   4.753612   4.090945   3.506737
    29  H    6.374977   5.083544   3.503059   2.961995   2.887908
    30  H    6.343421   5.071124   2.797370   3.640758   2.859671
    31  H    7.577927   6.178061   4.107176   4.206108   3.533916
                    6          7          8          9         10
     6  C    0.000000
     7  C    2.525232   0.000000
     8  O    4.193610   2.406512   0.000000
     9  C    3.935036   3.946243   2.902764   0.000000
    10  C    4.561857   5.093844   4.327580   1.532793   0.000000
    11  C    4.417124   4.591640   3.436800   1.531490   2.506694
    12  H    3.478030   2.750988   5.077521   6.423162   7.273572
    13  H    2.775211   3.480110   5.847513   6.429270   7.028020
    14  H    2.793245   2.812965   5.117525   6.198262   7.127186
    15  H    2.139411   2.148920   4.035108   4.434279   4.997404
    16  H    2.909992   2.157391   2.040758   2.910816   4.312625
    17  H    2.139548   3.805930   4.300940   2.702465   3.066581
    18  H    2.152461   3.759507   4.544057   2.996734   2.910907
    19  H    3.018328   2.696759   2.698094   2.128773   2.739437
    20  H    1.098002   2.759706   4.318801   4.266036   5.074737
    21  H    1.096624   3.483411   5.258612   4.739512   5.093505
    22  H    3.059513   1.098177   2.831811   4.717916   5.979235
    23  H    3.417742   1.098192   2.475188   4.376399   5.465718
    24  H    4.619567   2.533870   0.972462   3.805693   5.268857
    25  H    4.720234   4.168026   2.561414   1.098292   2.123251
    26  H    4.307130   5.376529   4.989434   2.189987   1.094729
    27  H    4.700105   5.121624   4.527301   2.178031   1.095004
    28  H    5.610659   6.017527   4.912604   2.174164   1.095511
    29  H    4.093207   4.824269   4.167118   2.191103   2.809330
    30  H    4.542055   4.286836   2.940084   2.183747   3.470487
    31  H    5.476398   5.614755   4.186928   2.171288   2.714857
                   11         12         13         14         15
    11  C    0.000000
    12  H    7.142768   0.000000
    13  H    7.083043   1.770155   0.000000
    14  H    6.567182   1.773262   1.771383   0.000000
    15  H    5.443888   2.478126   2.461264   3.059095   0.000000
    16  H    2.863232   4.689792   4.987855   4.046364   3.780566
    17  H    2.830379   5.539589   4.888036   4.792959   3.772814
    18  H    3.870173   5.081788   4.380174   4.853092   2.835613
    19  H    3.483717   4.744430   4.879670   4.985631   2.558500
    20  H    4.379642   3.792471   3.168416   2.618086   3.051460
    21  H    5.240236   3.741579   2.524794   3.063469   2.513598
    22  H    5.089756   2.741132   3.654151   2.469824   3.019513
    23  H    5.228289   2.783310   3.886909   3.439013   2.313748
    24  H    4.118646   5.028165   5.992905   5.029000   4.467282
    25  H    2.129056   6.743858   7.003624   6.712397   4.848564
    26  H    2.767244   7.353597   6.849591   7.032977   5.084206
    27  H    3.468605   7.085894   6.878702   7.190636   4.693240
    28  H    2.757286   8.308057   8.113290   8.148886   6.058081
    29  H    1.093792   7.155471   6.848373   6.375023   5.489235
    30  H    1.093892   6.925291   7.059135   6.288700   5.548949
    31  H    1.095823   8.204150   8.155714   7.661764   6.436869
                   16         17         18         19         20
    16  H    0.000000
    17  H    2.944487   0.000000
    18  H    3.806639   1.751053   0.000000
    19  H    3.044557   3.027882   2.297479   0.000000
    20  H    2.624977   2.309745   3.005640   3.760773   0.000000
    21  H    3.988087   2.610413   2.318201   3.763424   1.756717
    22  H    2.304950   4.404244   4.647659   3.746544   2.923192
    23  H    3.016892   4.680814   4.341540   2.844207   3.809277
    24  H    2.271738   4.950034   5.309663   3.566499   4.585870
    25  H    3.288865   3.756755   3.878690   2.385280   5.066445
    26  H    4.540788   2.561290   2.534457   3.230582   4.784129
    27  H    4.793671   3.603301   2.874097   2.486615   5.406379
    28  H    5.047509   3.977419   3.985408   3.693218   6.046349
    29  H    3.074513   2.230110   3.606495   3.875357   3.947637
    30  H    2.320881   3.331991   4.476311   3.799561   4.325164
    31  H    3.887189   3.756327   4.707659   4.287341   5.454129
                   21         22         23         24         25
    21  H    0.000000
    22  H    3.982075   0.000000
    23  H    4.273501   1.741761   0.000000
    24  H    5.699151   2.581520   2.552873   0.000000
    25  H    5.590489   4.925367   4.363792   3.474815   0.000000
    26  H    4.661634   6.222239   5.900455   5.888157   3.056101
    27  H    5.149533   6.116032   5.316089   5.496864   2.492009
    28  H    6.155880   6.859709   6.348005   5.833756   2.425323
    29  H    4.779281   5.272706   5.616981   4.796127   3.062876
    30  H    5.484671   4.585522   4.934188   3.419688   2.473543
    31  H    6.253750   6.115723   6.171623   4.859378   2.460247
                   26         27         28         29         30
    26  H    0.000000
    27  H    1.774745   0.000000
    28  H    1.767084   1.767726   0.000000
    29  H    2.624995   3.811948   3.176008   0.000000
    30  H    3.800788   4.325485   3.739638   1.772558   0.000000
    31  H    3.050902   3.731049   2.508867   1.765170   1.760444
                   31
    31  H    0.000000
 Stoichiometry    C10H20O
 Framework group  C1[X(C10H20O)]
 Deg. of freedom    87
 Full point group                 C1      NOp   1
 Largest Abelian subgroup         C1      NOp   1
 Largest concise Abelian subgroup C1      NOp   1
                         Standard orientation:                         
 ---------------------------------------------------------------------
 Center     Atomic      Atomic             Coordinates (Angstroms)
 Number     Number       Type             X           Y           Z
 ---------------------------------------------------------------------
      1          6           0       -3.674039   -0.405148   -0.016394
      2          6           0       -2.177344   -0.368290   -0.317180
      3          6           0       -0.133849    1.111058    0.194209
      4          6           0        0.076755   -1.411188    0.192893
      5          6           0        0.640039   -0.090754   -0.377609
      6          6           0       -1.407129   -1.345009    0.570587
      7          6           0       -1.624298    1.058168   -0.173975
      8          8           0        0.413313    2.333155   -0.291656
      9          6           0        2.186419    0.035334   -0.245240
     10          6           0        2.908888   -1.150712   -0.893921
     11          6           0        2.677325    0.216891    1.194034
     12          1           0       -4.217847    0.285920   -0.669020
     13          1           0       -4.078018   -1.409702   -0.180386
     14          1           0       -3.878724   -0.124638    1.022398
     15          1           0       -2.044567   -0.682915   -1.361351
     16          1           0       -0.037891    1.120827    1.286751
     17          1           0        0.634115   -1.738259    1.076893
     18          1           0        0.213817   -2.198615   -0.559447
     19          1           0        0.444194   -0.098091   -1.461186
     20          1           0       -1.497891   -1.035058    1.620016
     21          1           0       -1.838602   -2.351207    0.507486
     22          1           0       -2.179425    1.615346    0.592433
     23          1           0       -1.806585    1.604676   -1.108922
     24          1           0       -0.096342    3.060162    0.105075
     25          1           0        2.493866    0.929631   -0.803771
     26          1           0        2.736501   -2.082091   -0.345063
     27          1           0        2.574302   -1.293570   -1.926722
     28          1           0        3.990098   -0.975795   -0.917070
     29          1           0        2.424491   -0.639522    1.825707
     30          1           0        2.254214    1.116173    1.651057
     31          1           0        3.767177    0.329380    1.213949
 ---------------------------------------------------------------------
 Rotational constants (GHZ):      1.7628634      0.7014005      0.5734751
 Standard basis: STO-3G (5D, 7F)
 There are    75 symmetry adapted basis functions of A   symmetry.
 Integral buffers will be    131072 words long.
 Raffenetti 1 integral format.
 Two-electron integral symmetry is turned on.
    75 basis functions,   225 primitive gaussians,    75 cartesian basis functions
    44 alpha electrons       44 beta electrons
       nuclear repulsion energy       689.6068813602 Hartrees.
 NAtoms=   31 NActive=   31 NUniq=   31 SFac= 1.00D+00 NAtFMM=   60 NAOKFM=F Big=F
 One-electron integrals computed using PRISM.
 NBasis=    75 RedAO= T  NBF=    75
 NBsUse=    75 1.00D-06 NBFU=    75
 Harris functional with IExCor=  205 diagonalized for initial guess.
 ExpMin= 1.69D-01 ExpMax= 1.31D+02 ExpMxC= 1.31D+02 IAcc=1 IRadAn=         1 AccDes= 0.00D+00
 HarFok:  IExCor=  205 AccDes= 0.00D+00 IRadAn=         1 IDoV= 1
 ScaDFX=  1.000000  1.000000  1.000000  1.000000
 FoFCou: FMM=F IPFlag=           0 FMFlag=      100000 FMFlg1=           0
         NFxFlg=           0 DoJE=T BraDBF=F KetDBF=T FulRan=T
         Omega=  0.000000  0.000000  1.000000  0.000000  0.000000 ICntrl=     500 IOpCl=  0
         NMat0=    1 NMatS0=    1 NMatT0=    0 NMatD0=    1 NMtDS0=    0 NMtDT0=    0
         I1Cent=           4 NGrid=           0.
 Petite list used in FoFCou.
 Initial guess orbital symmetries:
       Occupied  (A) (A) (A) (A) (A) (A) (A) (A) (A) (A) (A) (A)
                 (A) (A) (A) (A) (A) (A) (A) (A) (A) (A) (A) (A)
                 (A) (A) (A) (A) (A) (A) (A) (A) (A) (A) (A) (A)
                 (A) (A) (A) (A) (A) (A) (A) (A)
       Virtual   (A) (A) (A) (A) (A) (A) (A) (A) (A) (A) (A) (A)
                 (A) (A) (A) (A) (A) (A) (A) (A) (A) (A) (A) (A)
                 (A) (A) (A) (A) (A) (A) (A)
 The electronic state of the initial guess is 1-A.
 Requested convergence on RMS density matrix=1.00D-08 within 128 cycles.
 Requested convergence on MAX density matrix=1.00D-06.
 Requested convergence on             energy=1.00D-06.
 No special actions if energy rises.
 Keep R1 ints in memory in canonical form, NReq=4898789.
 SCF Done:  E(RHF) =  -459.613431047     A.U. after   10 cycles
             Convg  =    0.6169D-08             -V/T =  2.0089
 Range of M.O.s used for correlation:     1    75
 NBasis=    75 NAE=    44 NBE=    44 NFC=     0 NFV=     0
 NROrb=     75 NOA=    44 NOB=    44 NVA=    31 NVB=    31
          Differentiating once with respect to magnetic field using GIAOs.
          Electric field/nuclear overlap derivatives assumed to be zero.
          Keep R3 ints in memory in canonical form, NReq=4863575.
 FoFCou: FMM=F IPFlag=           0 FMFlag=           0 FMFlg1=           0
         NFxFlg=           0 DoJE=F BraDBF=F KetDBF=T FulRan=T
         Omega=  0.000000  0.000000  1.000000  0.000000  0.000000 ICntrl=    6100 IOpCl=  0
         NMat0=    1 NMatS0=    1 NMatT0=    0 NMatD0=    1 NMtDS0=    0 NMtDT0=    0
         I1Cent=           7 NGrid=          31.
 Symmetry not used in FoFCou.
          There are     3 degrees of freedom in the 1st order CPHF.  IDoFFX=0.
      3 vectors produced by pass  0 Test12= 4.55D-14 3.33D-08 XBig12= 7.58D+00 4.23D-01.
 AX will form     3 AO Fock derivatives at one time.
      3 vectors produced by pass  1 Test12= 4.55D-14 3.33D-08 XBig12= 1.12D-02 1.32D-02.
      3 vectors produced by pass  2 Test12= 4.55D-14 3.33D-08 XBig12= 9.17D-05 2.92D-03.
      3 vectors produced by pass  3 Test12= 4.55D-14 3.33D-08 XBig12= 1.87D-06 4.63D-04.
      3 vectors produced by pass  4 Test12= 4.55D-14 3.33D-08 XBig12= 1.60D-08 1.79D-05.
      3 vectors produced by pass  5 Test12= 4.55D-14 3.33D-08 XBig12= 2.07D-10 1.96D-06.
      3 vectors produced by pass  6 Test12= 4.55D-14 3.33D-08 XBig12= 2.07D-12 1.89D-07.
 Inverted reduced A of dimension    21 with in-core refinement.
 Calculating GIAO nuclear magnetic shielding tensors.
 SCF GIAO Magnetic shielding tensor (ppm):
      1  C    Isotropic =   221.1905   Anisotropy =    27.6137
   XX=   239.0627   YX=     3.6375   ZX=    -1.5514
   XY=     1.6670   YY=   213.7947   ZY=     0.9386
   XZ=    -4.3643   YZ=     2.9773   ZZ=   210.7142
   Eigenvalues:   209.2700   214.7019   239.5997
      2  C    Isotropic =   216.7107   Anisotropy =     9.9248
   XX=   223.0411   YX=     0.9971   ZX=     2.0965
   XY=     0.9103   YY=   217.9148   ZY=    -3.5754
   XZ=     1.4073   YZ=    -2.5657   ZZ=   209.1763
   Eigenvalues:   207.9510   218.8539   223.3273
      3  C    Isotropic =   189.2495   Anisotropy =    42.2961
   XX=   186.3021   YX=    11.0172   ZX=    -7.8232
   XY=     9.6648   YY=   210.3222   ZY=    -9.3536
   XZ=    -5.2097   YZ=   -12.0839   ZZ=   171.1244
   Eigenvalues:   167.4955   182.8062   217.4470
      4  C    Isotropic =   219.5835   Anisotropy =    15.8472
   XX=   228.6218   YX=     1.9504   ZX=    -3.2618
   XY=     1.4870   YY=   222.8243   ZY=    -2.9989
   XZ=    -4.3913   YZ=    -5.2860   ZZ=   207.3045
   Eigenvalues:   205.7847   222.8175   230.1483
      5  C    Isotropic =   211.2204   Anisotropy =    16.8721
   XX=   222.1045   YX=    -4.8057   ZX=    -0.6270
   XY=     0.9235   YY=   211.4674   ZY=     2.4342
   XZ=     0.2453   YZ=     3.1330   ZZ=   200.0894
   Eigenvalues:   199.4421   211.7508   222.4685
      6  C    Isotropic =   217.3984   Anisotropy =    17.7994
   XX=   226.6936   YX=    -2.9127   ZX=     1.8304
   XY=    -5.3686   YY=   215.4757   ZY=    -6.8251
   XZ=     3.5455   YZ=    -6.1489   ZZ=   210.0260
   Eigenvalues:   205.7147   217.2160   229.2647
      7  C    Isotropic =   213.5994   Anisotropy =    26.8590
   XX=   226.3435   YX=     9.2681   ZX=     2.4036
   XY=     8.2191   YY=   216.6191   ZY=    -0.7770
   XZ=     1.4386   YZ=    -2.5721   ZZ=   197.8355
   Eigenvalues:   197.4012   211.8915   231.5054
      8  O    Isotropic =   356.0305   Anisotropy =    74.9746
   XX=   362.8221   YX=   -44.3348   ZX=    -2.2684
   XY=   -21.4551   YY=   366.9730   ZY=    16.6319
   XZ=   -14.6821   YZ=    31.2508   ZZ=   338.2964
   Eigenvalues:   321.3668   340.7111   406.0135
      9  C    Isotropic =   214.6918   Anisotropy =    14.0555
   XX=   223.9912   YX=    -0.5765   ZX=    -0.6011
   XY=    -1.5421   YY=   208.1982   ZY=     5.1475
   XZ=     1.3712   YZ=     5.0414   ZZ=   211.8859
   Eigenvalues:   204.5631   215.4500   224.0621
     10  C    Isotropic =   221.5324   Anisotropy =    25.5047
   XX=   221.9056   YX=    -8.5747   ZX=    -6.0484
   XY=    -9.3497   YY=   223.0738   ZY=    12.6860
   XZ=    -3.9640   YZ=     9.1290   ZZ=   219.6179
   Eigenvalues:   209.7725   216.2892   238.5356
     11  C    Isotropic =   224.5658   Anisotropy =    20.1498
   XX=   222.3479   YX=     0.6278   ZX=     6.7825
   XY=    -0.1289   YY=   216.8489   ZY=     3.6137
   XZ=     4.9841   YZ=     6.6323   ZZ=   234.5004
   Eigenvalues:   215.1724   220.5259   237.9990
     12  H    Isotropic =    32.4122   Anisotropy =    13.5840
   XX=    37.0658   YX=    -3.7771   ZX=     4.7280
   XY=    -3.7187   YY=    30.5630   ZY=    -3.7695
   XZ=     4.3158   YZ=    -3.4530   ZZ=    29.6078
   Eigenvalues:    26.3039    29.4646    41.4682
     13  H    Isotropic =    32.5055   Anisotropy =    13.9649
   XX=    35.3888   YX=     6.2412   ZX=     1.2347
   XY=     5.8908   YY=    35.6950   ZY=     1.3582
   XZ=     1.0662   YZ=     1.3667   ZZ=    26.4328
   Eigenvalues:    26.2222    29.4789    41.8155
     14  H    Isotropic =    32.7592   Anisotropy =    11.5593
   XX=    34.2085   YX=    -0.8799   ZX=    -4.8011
   XY=    -0.7432   YY=    28.0340   ZY=     2.1740
   XZ=    -4.9518   YZ=     2.1331   ZZ=    36.0351
   Eigenvalues:    27.4512    30.3611    40.4654
     15  H    Isotropic =    32.5267   Anisotropy =    10.7408
   XX=    31.2354   YX=     0.4814   ZX=     1.0565
   XY=     0.3609   YY=    27.9180   ZY=     3.7224
   XZ=     0.8152   YZ=     3.5576   ZZ=    38.4267
   Eigenvalues:    26.7769    31.1160    39.6872
     16  H    Isotropic =    32.0603   Anisotropy =     6.6799
   XX=    31.0970   YX=    -0.1864   ZX=     0.6332
   XY=    -0.4753   YY=    29.4362   ZY=     1.7285
   XZ=     1.6873   YZ=     2.5880   ZZ=    35.6476
   Eigenvalues:    28.5761    31.0911    36.5135
     17  H    Isotropic =    32.5765   Anisotropy =    11.0849
   XX=    35.2042   YX=    -1.0478   ZX=     3.6228
   XY=    -1.1513   YY=    30.1957   ZY=    -5.6368
   XZ=     3.8712   YZ=    -5.9928   ZZ=    32.3297
   Eigenvalues:    25.0843    32.6788    39.9665
     18  H    Isotropic =    32.3726   Anisotropy =    12.6318
   XX=    31.2994   YX=    -0.4792   ZX=    -2.8874
   XY=    -0.7173   YY=    37.0606   ZY=     6.2574
   XZ=    -2.7798   YZ=     6.2468   ZZ=    28.7577
   Eigenvalues:    24.6424    31.6816    40.7938
     19  H    Isotropic =    32.2027   Anisotropy =     8.8650
   XX=    31.8270   YX=    -0.8064   ZX=     0.7505
   XY=    -1.1148   YY=    26.7245   ZY=     0.6425
   XZ=     0.2673   YZ=     0.3297   ZZ=    38.0567
   Eigenvalues:    26.5215    31.9740    38.1127
     20  H    Isotropic =    32.8633   Anisotropy =    10.6785
   XX=    31.2717   YX=    -0.3437   ZX=    -1.9023
   XY=    -0.2489   YY=    27.8164   ZY=    -0.6880
   XZ=    -1.9369   YZ=    -1.1133   ZZ=    39.5019
   Eigenvalues:    27.6878    30.9198    39.9823
     21  H    Isotropic =    32.4959   Anisotropy =    13.9570
   XX=    32.7036   YX=     4.3548   ZX=    -0.3281
   XY=     4.1517   YY=    39.5907   ZY=    -1.8056
   XZ=    -0.4229   YZ=    -1.6756   ZZ=    25.1935
   Eigenvalues:    24.9834    30.7037    41.8006
     22  H    Isotropic =    32.7303   Anisotropy =    11.4965
   XX=    34.7613   YX=    -2.7339   ZX=    -3.2912
   XY=    -2.5713   YY=    33.8120   ZY=     5.0870
   XZ=    -3.6650   YZ=     5.2062   ZZ=    29.6176
   Eigenvalues:    25.8888    31.9075    40.3946
     23  H    Isotropic =    32.1831   Anisotropy =    11.9809
   XX=    30.4937   YX=    -0.3878   ZX=     3.8208
   XY=    -0.7397   YY=    33.1746   ZY=    -6.2191
   XZ=     3.3634   YZ=    -6.2418   ZZ=    32.8810
   Eigenvalues:    25.6686    30.7104    40.1704
     24  H    Isotropic =    34.8647   Anisotropy =    19.1026
   XX=    31.3324   YX=    -4.2171   ZX=    -3.8182
   XY=    -2.6752   YY=    45.9058   ZY=     3.0520
   XZ=    -3.2353   YZ=     4.1199   ZZ=    27.3560
   Eigenvalues:    25.1927    31.8017    47.5998
     25  H    Isotropic =    31.7828   Anisotropy =    11.7485
   XX=    31.6156   YX=     2.3931   ZX=    -3.4087
   XY=     2.2397   YY=    34.9234   ZY=    -5.2474
   XZ=    -3.2266   YZ=    -5.1466   ZZ=    28.8095
   Eigenvalues:    25.2709    30.4625    39.6152
     26  H    Isotropic =    32.5858   Anisotropy =     9.7883
   XX=    31.0703   YX=    -1.9612   ZX=    -1.6447
   XY=    -2.0919   YY=    38.3019   ZY=    -2.0846
   XZ=    -1.5376   YZ=    -2.2444   ZZ=    28.3853
   Eigenvalues:    26.9368    31.7093    39.1114
     27  H    Isotropic =    32.4741   Anisotropy =    12.5533
   XX=    30.1130   YX=    -1.4106   ZX=    -0.6228
   XY=    -1.2902   YY=    28.1978   ZY=     4.8100
   XZ=    -0.4449   YZ=     4.2790   ZZ=    39.1116
   Eigenvalues:    26.2423    30.3372    40.8430
     28  H    Isotropic =    32.4137   Anisotropy =    14.7797
   XX=    41.5147   YX=    -1.0253   ZX=    -2.9989
   XY=    -1.3525   YY=    27.6760   ZY=     1.6099
   XZ=    -2.8078   YZ=     1.5841   ZZ=    28.0506
   Eigenvalues:    26.1698    28.8045    42.2669
     29  H    Isotropic =    32.7504   Anisotropy =    10.0180
   XX=    30.4012   YX=     1.2200   ZX=     1.4886
   XY=     1.1826   YY=    32.1683   ZY=    -5.0544
   XZ=     1.7240   YZ=    -5.2887   ZZ=    35.6818
   Eigenvalues:    27.2803    31.5419    39.4291
     30  H    Isotropic =    32.3638   Anisotropy =    10.6817
   XX=    31.1286   YX=    -2.4686   ZX=     1.4840
   XY=    -2.3437   YY=    33.8428   ZY=     6.2764
   XZ=     1.7014   YZ=     6.4643   ZZ=    32.1201
   Eigenvalues:    25.2310    32.3755    39.4849
     31  H    Isotropic =    32.5380   Anisotropy =    14.7618
   XX=    40.9650   YX=     2.0715   ZX=     3.5028
   XY=     1.8999   YY=    27.1771   ZY=     1.7129
   XZ=     3.7317   YZ=     1.6005   ZZ=    29.4718
   Eigenvalues:    26.3086    28.9262    42.3791
 End of Minotr Frequency-dependent properties file   721 does not exist.
 End of Minotr Frequency-dependent properties file   722 does not exist.

 **********************************************************************

            Population analysis using the SCF density.

 **********************************************************************

 Orbital symmetries:
       Occupied  (A) (A) (A) (A) (A) (A) (A) (A) (A) (A) (A) (A)
                 (A) (A) (A) (A) (A) (A) (A) (A) (A) (A) (A) (A)
                 (A) (A) (A) (A) (A) (A) (A) (A) (A) (A) (A) (A)
                 (A) (A) (A) (A) (A) (A) (A) (A)
       Virtual   (A) (A) (A) (A) (A) (A) (A) (A) (A) (A) (A) (A)
                 (A) (A) (A) (A) (A) (A) (A) (A) (A) (A) (A) (A)
                 (A) (A) (A) (A) (A) (A) (A)
 The electronic state is 1-A.
 Alpha  occ. eigenvalues --  -20.23758 -11.08374 -11.04773 -11.04112 -11.04045
 Alpha  occ. eigenvalues --  -11.03674 -11.03577 -11.03480 -11.03327 -11.02576
 Alpha  occ. eigenvalues --  -11.02442  -1.27820  -1.08158  -1.03440  -0.96610
 Alpha  occ. eigenvalues --   -0.94594  -0.88469  -0.87840  -0.80023  -0.78427
 Alpha  occ. eigenvalues --   -0.73375  -0.67388  -0.63775  -0.60077  -0.59531
 Alpha  occ. eigenvalues --   -0.57879  -0.56551  -0.53628  -0.52954  -0.52555
 Alpha  occ. eigenvalues --   -0.50171  -0.50018  -0.48923  -0.47910  -0.47096
 Alpha  occ. eigenvalues --   -0.45890  -0.43726  -0.42884  -0.42177  -0.41168
 Alpha  occ. eigenvalues --   -0.39116  -0.38209  -0.36237  -0.33138
 Alpha virt. eigenvalues --    0.53361   0.55009   0.57214   0.60033   0.61010
 Alpha virt. eigenvalues --    0.61676   0.62382   0.64475   0.66057   0.66129
 Alpha virt. eigenvalues --    0.69206   0.69887   0.70363   0.71441   0.71841
 Alpha virt. eigenvalues --    0.72464   0.73508   0.73979   0.75427   0.76584
 Alpha virt. eigenvalues --    0.76939   0.78233   0.78402   0.79192   0.80272
 Alpha virt. eigenvalues --    0.80915   0.81903   0.83231   0.85152   0.85940
 Alpha virt. eigenvalues --    0.87970
          Condensed to atoms (all electrons):
              1          2          3          4          5          6
     1  C    4.738937   0.365935   0.000652   0.000732   0.000022  -0.023836
     2  C    0.365935   4.742684  -0.018339  -0.022111  -0.006441   0.364419
     3  C    0.000652  -0.018339   4.743246  -0.021801   0.358529  -0.007346
     4  C    0.000732  -0.022111  -0.021801   4.759684   0.360081   0.361049
     5  C    0.000022  -0.006441   0.358529   0.360081   4.773441  -0.019381
     6  C   -0.023836   0.364419  -0.007346   0.361049  -0.019381   4.756641
     7  C   -0.024011   0.360598   0.356982  -0.002772  -0.022088  -0.023562
     8  O   -0.000001   0.000247   0.268046   0.000206  -0.016438   0.000006
     9  C    0.000000   0.000021  -0.018604  -0.019238   0.358690   0.000544
    10  C    0.000000   0.000000   0.000597  -0.002381  -0.021946   0.000011
    11  C    0.000000   0.000000  -0.002118  -0.001670  -0.020653   0.000006
    12  H    0.382465  -0.020327   0.000010  -0.000017   0.000000   0.001294
    13  H    0.382357  -0.020254  -0.000016   0.000013   0.000000  -0.002200
    14  H    0.382160  -0.020816   0.000014   0.000005   0.000000  -0.002186
    15  H   -0.024588   0.382627   0.000163  -0.002403  -0.000207  -0.024880
    16  H   -0.000013   0.000379   0.375616  -0.001999  -0.025111  -0.000109
    17  H   -0.000016   0.001270  -0.000109   0.382137  -0.020744  -0.023170
    18  H   -0.000008  -0.000144   0.001233   0.383194  -0.022374  -0.022816
    19  H    0.000000  -0.000124  -0.025617  -0.023933   0.379916   0.000081
    20  H   -0.001910  -0.023230  -0.000161  -0.022883   0.000079   0.381416
    21  H   -0.002490  -0.020661   0.000064  -0.021644   0.001101   0.383490
    22  H   -0.005218  -0.021127  -0.023595   0.000007   0.001203  -0.000045
    23  H    0.000024  -0.021347  -0.021143   0.000040  -0.000318   0.001253
    24  H    0.000000   0.000005  -0.040988  -0.000036   0.002447  -0.000001
    25  H    0.000000  -0.000001  -0.001763   0.001085  -0.022685  -0.000012
    26  H    0.000000   0.000000  -0.000002  -0.000594  -0.001370   0.000006
    27  H    0.000000   0.000000   0.000014  -0.000088  -0.002376  -0.000001
    28  H    0.000000   0.000000  -0.000013   0.000022   0.001160   0.000000
    29  H    0.000000   0.000000   0.000011  -0.000597  -0.001533  -0.000010
    30  H    0.000000   0.000000  -0.000792   0.000049  -0.001594  -0.000002
    31  H    0.000000   0.000000   0.000023   0.000013   0.001122   0.000000
              7          8          9         10         11         12
     1  C   -0.024011  -0.000001   0.000000   0.000000   0.000000   0.382465
     2  C    0.360598   0.000247   0.000021   0.000000   0.000000  -0.020327
     3  C    0.356982   0.268046  -0.018604   0.000597  -0.002118   0.000010
     4  C   -0.002772   0.000206  -0.019238  -0.002381  -0.001670  -0.000017
     5  C   -0.022088  -0.016438   0.358690  -0.021946  -0.020653   0.000000
     6  C   -0.023562   0.000006   0.000544   0.000011   0.000006   0.001294
     7  C    4.790647  -0.020340   0.000571  -0.000004   0.000006  -0.002140
     8  O   -0.020340   7.845454  -0.001052   0.000001  -0.000036   0.000000
     9  C    0.000571  -0.001052   4.736250   0.364203   0.364194   0.000000
    10  C   -0.000004   0.000001   0.364203   4.742935  -0.025976   0.000000
    11  C    0.000006  -0.000036   0.364194  -0.025976   4.742077   0.000000
    12  H   -0.002140   0.000000   0.000000   0.000000   0.000000   0.629973
    13  H    0.001289   0.000000   0.000000   0.000000   0.000000  -0.021569
    14  H   -0.002297   0.000000   0.000000   0.000000   0.000000  -0.021685
    15  H   -0.024076  -0.000002   0.000000   0.000000   0.000000  -0.002310
    16  H   -0.027176  -0.019223  -0.001343  -0.000005  -0.000539   0.000000
    17  H    0.000012  -0.000003  -0.003658  -0.000281  -0.000575   0.000000
    18  H    0.000008  -0.000004   0.000063  -0.000396   0.000029   0.000000
    19  H   -0.002917  -0.000326  -0.024687  -0.002283   0.001183   0.000000
    20  H   -0.002330   0.000000  -0.000007   0.000000   0.000005   0.000000
    21  H    0.001235   0.000000  -0.000010   0.000000   0.000000   0.000024
    22  H    0.380670   0.000071  -0.000013   0.000000   0.000000  -0.000098
    23  H    0.380606  -0.001911  -0.000009   0.000000   0.000000   0.000203
    24  H   -0.002892   0.257920   0.000056   0.000000  -0.000003   0.000000
    25  H    0.000007   0.000341   0.382667  -0.024696  -0.024539   0.000000
    26  H    0.000000   0.000000  -0.020366   0.382227  -0.002412   0.000000
    27  H    0.000000   0.000000  -0.020214   0.382019   0.001319   0.000000
    28  H    0.000000   0.000000  -0.019883   0.382707  -0.002083   0.000000
    29  H   -0.000002   0.000001  -0.020399  -0.001990   0.381806   0.000000
    30  H    0.000006   0.000105  -0.019611   0.001319   0.382854   0.000000
    31  H    0.000000   0.000000  -0.019875  -0.002656   0.382362   0.000000
             13         14         15         16         17         18
     1  C    0.382357   0.382160  -0.024588  -0.000013  -0.000016  -0.000008
     2  C   -0.020254  -0.020816   0.382627   0.000379   0.001270  -0.000144
     3  C   -0.000016   0.000014   0.000163   0.375616  -0.000109   0.001233
     4  C    0.000013   0.000005  -0.002403  -0.001999   0.382137   0.383194
     5  C    0.000000   0.000000  -0.000207  -0.025111  -0.020744  -0.022374
     6  C   -0.002200  -0.002186  -0.024880  -0.000109  -0.023170  -0.022816
     7  C    0.001289  -0.002297  -0.024076  -0.027176   0.000012   0.000008
     8  O    0.000000   0.000000  -0.000002  -0.019223  -0.000003  -0.000004
     9  C    0.000000   0.000000   0.000000  -0.001343  -0.003658   0.000063
    10  C    0.000000   0.000000   0.000000  -0.000005  -0.000281  -0.000396
    11  C    0.000000   0.000000   0.000000  -0.000539  -0.000575   0.000029
    12  H   -0.021569  -0.021685  -0.002310   0.000000   0.000000   0.000000
    13  H    0.629973  -0.021772  -0.002399   0.000000  -0.000001   0.000001
    14  H   -0.021772   0.631301   0.001917   0.000003   0.000000   0.000000
    15  H   -0.002399   0.001917   0.651715  -0.000023   0.000010   0.000296
    16  H    0.000000   0.000003  -0.000023   0.667266   0.000245  -0.000001
    17  H   -0.000001   0.000000   0.000010   0.000245   0.642520  -0.024119
    18  H    0.000001   0.000000   0.000296  -0.000001  -0.024119   0.644894
    19  H    0.000000   0.000000  -0.000468   0.001995   0.001838  -0.005981
    20  H    0.000010   0.000390   0.002003  -0.000446  -0.005751   0.001962
    21  H    0.000206  -0.000005  -0.001959   0.000003   0.000196  -0.005669
    22  H    0.000071   0.000331   0.001860  -0.005629   0.000002   0.000001
    23  H   -0.000024   0.000001  -0.005720   0.001842   0.000001   0.000001
    24  H    0.000000   0.000000   0.000000  -0.003487   0.000001   0.000001
    25  H    0.000000   0.000000   0.000000   0.000041   0.000027  -0.000018
    26  H    0.000000   0.000000   0.000000   0.000001  -0.000150  -0.000602
    27  H    0.000000   0.000000   0.000000   0.000000   0.000028  -0.000042
    28  H    0.000000   0.000000   0.000000   0.000000  -0.000009   0.000013
    29  H    0.000000   0.000000   0.000000   0.000011  -0.000401   0.000019
    30  H    0.000000   0.000000   0.000000  -0.000817   0.000034  -0.000002
    31  H    0.000000   0.000000   0.000000   0.000003  -0.000018  -0.000001
             19         20         21         22         23         24
     1  C    0.000000  -0.001910  -0.002490  -0.005218   0.000024   0.000000
     2  C   -0.000124  -0.023230  -0.020661  -0.021127  -0.021347   0.000005
     3  C   -0.025617  -0.000161   0.000064  -0.023595  -0.021143  -0.040988
     4  C   -0.023933  -0.022883  -0.021644   0.000007   0.000040  -0.000036
     5  C    0.379916   0.000079   0.001101   0.001203  -0.000318   0.002447
     6  C    0.000081   0.381416   0.383490  -0.000045   0.001253  -0.000001
     7  C   -0.002917  -0.002330   0.001235   0.380670   0.380606  -0.002892
     8  O   -0.000326   0.000000   0.000000   0.000071  -0.001911   0.257920
     9  C   -0.024687  -0.000007  -0.000010  -0.000013  -0.000009   0.000056
    10  C   -0.002283   0.000000   0.000000   0.000000   0.000000   0.000000
    11  C    0.001183   0.000005   0.000000   0.000000   0.000000  -0.000003
    12  H    0.000000   0.000000   0.000024  -0.000098   0.000203   0.000000
    13  H    0.000000   0.000010   0.000206   0.000071  -0.000024   0.000000
    14  H    0.000000   0.000390  -0.000005   0.000331   0.000001   0.000000
    15  H   -0.000468   0.002003  -0.001959   0.001860  -0.005720   0.000000
    16  H    0.001995  -0.000446   0.000003  -0.005629   0.001842  -0.003487
    17  H    0.001838  -0.005751   0.000196   0.000002   0.000001   0.000001
    18  H   -0.005981   0.001962  -0.005669   0.000001   0.000001   0.000001
    19  H    0.654850  -0.000024  -0.000019   0.000017   0.000241  -0.000016
    20  H   -0.000024   0.648661  -0.023938   0.000279   0.000006   0.000000
    21  H   -0.000019  -0.023938   0.638410  -0.000021  -0.000033   0.000000
    22  H    0.000017   0.000279  -0.000021   0.651777  -0.025010   0.000255
    23  H    0.000241   0.000006  -0.000033  -0.025010   0.635705  -0.000023
    24  H   -0.000016   0.000000   0.000000   0.000255  -0.000023   0.610171
    25  H   -0.003079   0.000000   0.000000  -0.000001   0.000001  -0.000034
    26  H    0.000013   0.000000   0.000001   0.000000   0.000000   0.000000
    27  H    0.000297   0.000000   0.000000   0.000000   0.000000   0.000000
    28  H    0.000016   0.000000   0.000000   0.000000   0.000000   0.000000
    29  H   -0.000004   0.000005   0.000001   0.000000   0.000000   0.000000
    30  H    0.000012  -0.000001   0.000000   0.000001   0.000000  -0.000007
    31  H   -0.000030   0.000000   0.000000   0.000000   0.000000   0.000000
             25         26         27         28         29         30
     1  C    0.000000   0.000000   0.000000   0.000000   0.000000   0.000000
     2  C   -0.000001   0.000000   0.000000   0.000000   0.000000   0.000000
     3  C   -0.001763  -0.000002   0.000014  -0.000013   0.000011  -0.000792
     4  C    0.001085  -0.000594  -0.000088   0.000022  -0.000597   0.000049
     5  C   -0.022685  -0.001370  -0.002376   0.001160  -0.001533  -0.001594
     6  C   -0.000012   0.000006  -0.000001   0.000000  -0.000010  -0.000002
     7  C    0.000007   0.000000   0.000000   0.000000  -0.000002   0.000006
     8  O    0.000341   0.000000   0.000000   0.000000   0.000001   0.000105
     9  C    0.382667  -0.020366  -0.020214  -0.019883  -0.020399  -0.019611
    10  C   -0.024696   0.382227   0.382019   0.382707  -0.001990   0.001319
    11  C   -0.024539  -0.002412   0.001319  -0.002083   0.381806   0.382854
    12  H    0.000000   0.000000   0.000000   0.000000   0.000000   0.000000
    13  H    0.000000   0.000000   0.000000   0.000000   0.000000   0.000000
    14  H    0.000000   0.000000   0.000000   0.000000   0.000000   0.000000
    15  H    0.000000   0.000000   0.000000   0.000000   0.000000   0.000000
    16  H    0.000041   0.000001   0.000000   0.000000   0.000011  -0.000817
    17  H    0.000027  -0.000150   0.000028  -0.000009  -0.000401   0.000034
    18  H   -0.000018  -0.000602  -0.000042   0.000013   0.000019  -0.000002
    19  H   -0.003079   0.000013   0.000297   0.000016  -0.000004   0.000012
    20  H    0.000000   0.000000   0.000000   0.000000   0.000005  -0.000001
    21  H    0.000000   0.000001   0.000000   0.000000   0.000001   0.000000
    22  H   -0.000001   0.000000   0.000000   0.000000   0.000000   0.000001
    23  H    0.000001   0.000000   0.000000   0.000000   0.000000   0.000000
    24  H   -0.000034   0.000000   0.000000   0.000000   0.000000  -0.000007
    25  H    0.637916   0.001920  -0.001942  -0.002990   0.001903  -0.002433
    26  H    0.001920   0.632508  -0.021709  -0.022166   0.000373   0.000012
    27  H   -0.001942  -0.021709   0.632153  -0.021656   0.000005  -0.000037
    28  H   -0.002990  -0.022166  -0.021656   0.631040  -0.000007   0.000022
    29  H    0.001903   0.000373   0.000005  -0.000007   0.635081  -0.021953
    30  H   -0.002433   0.000012  -0.000037   0.000022  -0.021953   0.628900
    31  H   -0.002356  -0.000023   0.000034   0.000107  -0.022105  -0.021963
             31
     1  C    0.000000
     2  C    0.000000
     3  C    0.000023
     4  C    0.000013
     5  C    0.001122
     6  C    0.000000
     7  C    0.000000
     8  O    0.000000
     9  C   -0.019875
    10  C   -0.002656
    11  C    0.382362
    12  H    0.000000
    13  H    0.000000
    14  H    0.000000
    15  H    0.000000
    16  H    0.000003
    17  H   -0.000018
    18  H   -0.000001
    19  H   -0.000030
    20  H    0.000000
    21  H    0.000000
    22  H    0.000000
    23  H    0.000000
    24  H    0.000000
    25  H   -0.002356
    26  H   -0.000023
    27  H    0.000034
    28  H    0.000107
    29  H   -0.022105
    30  H   -0.021963
    31  H    0.631647
 Mulliken atomic charges:
              1
     1  C   -0.171192
     2  C   -0.023262
     3  C    0.077208
     4  C   -0.104150
     5  C   -0.032528
     6  C   -0.100658
     7  C   -0.116031
     8  O   -0.313063
     9  C   -0.018289
    10  C   -0.173405
    11  C   -0.175236
    12  H    0.054177
    13  H    0.054313
    14  H    0.052640
    15  H    0.048443
    16  H    0.038517
    17  H    0.050685
    18  H    0.050461
    19  H    0.049047
    20  H    0.045866
    21  H    0.051718
    22  H    0.044210
    23  H    0.055616
    24  H    0.176630
    25  H    0.060641
    26  H    0.052333
    27  H    0.052196
    28  H    0.053719
    29  H    0.049784
    30  H    0.055895
    31  H    0.053715
 Sum of Mulliken atomic charges =   0.00000
 Mulliken charges with hydrogens summed into heavy atoms:
              1
     1  C   -0.010062
     2  C    0.025181
     3  C    0.115725
     4  C   -0.003003
     5  C    0.016519
     6  C   -0.003074
     7  C   -0.016206
     8  O   -0.136433
     9  C    0.042352
    10  C   -0.015157
    11  C   -0.015842
 Sum of Mulliken charges with hydrogens summed into heavy atoms =   0.00000
 Electronic spatial extent (au):  <R**2>=           2187.2623
 Charge=              0.0000 electrons
 Dipole moment (field-independent basis, Debye):
    X=             -1.0859    Y=             -0.1539    Z=              0.7224  Tot=              1.3133
 Quadrupole moment (field-independent basis, Debye-Ang):
   XX=            -68.6686   YY=            -66.5625   ZZ=            -67.4845
   XY=             -2.5662   XZ=              0.3227   YZ=              2.2439
 Traceless Quadrupole moment (field-independent basis, Debye-Ang):
   XX=             -1.0968   YY=              1.0094   ZZ=              0.0874
   XY=             -2.5662   XZ=              0.3227   YZ=              2.2439
 Octapole moment (field-independent basis, Debye-Ang**2):
  XXX=              7.0590  YYY=             21.6022  ZZZ=             -2.3126  XYY=             -8.0736
  XXY=              5.0202  XXZ=             -1.4803  XZZ=             -1.2010  YZZ=              4.1876
  YYZ=              5.2967  XYZ=             -0.3483
 Hexadecapole moment (field-independent basis, Debye-Ang**3):
 XXXX=          -1921.6959 YYYY=           -569.5562 ZZZZ=           -256.8938 XXXY=              8.7273
 XXXZ=              1.0591 YYYX=             -7.8506 YYYZ=             10.8153 ZZZX=             -3.4321
 ZZZY=             -2.7740 XXYY=           -424.6166 XXZZ=           -364.5650 YYZZ=           -146.6594
 XXYZ=             -3.6266 YYXZ=              4.6511 ZZXY=             -0.9397
 N-N= 6.896068813602D+02 E-N=-2.451303297868D+03  KE= 4.555405948091D+02
 ******************************Gaussian NBO Version 3.1******************************
             N A T U R A L   A T O M I C   O R B I T A L   A N D
          N A T U R A L   B O N D   O R B I T A L   A N A L Y S I S
 ******************************Gaussian NBO Version 3.1******************************
       /RESON  / : Allow strongly delocalized NBO set
       /NLMO   / : Form Natural Localized Molecular Orbitals
       /NMR /    : Analyze NMR Sheilding Tensor 

 Analyzing the SCF density

 Job title: comment                                                         

 Storage needed:     19864 in NPA,     23691 in NBO,     45933 in NLMO (  33549317 available)


 NATURAL POPULATIONS:  Natural atomic orbital occupancies 
                                                          
   NAO  Atom  No  lang   Type(AO)    Occupancy      Energy
 ----------------------------------------------------------
     1    C    1  S      Cor( 1S)     1.99997     -10.96674
     2    C    1  S      Val( 2S)     1.07963      -0.18295
     3    C    1  px     Val( 2p)     0.99153       0.08677
     4    C    1  py     Val( 2p)     1.02914       0.08209
     5    C    1  pz     Val( 2p)     1.02596       0.08331

     6    C    2  S      Cor( 1S)     1.99997     -10.99004
     7    C    2  S      Val( 2S)     1.07830      -0.19178
     8    C    2  px     Val( 2p)     0.95509       0.10924
     9    C    2  py     Val( 2p)     0.95768       0.10860
    10    C    2  pz     Val( 2p)     0.99415       0.09999

    11    C    3  S      Cor( 1S)     1.99989     -11.03280
    12    C    3  S      Val( 2S)     1.08666      -0.21445
    13    C    3  px     Val( 2p)     0.93695       0.09843
    14    C    3  py     Val( 2p)     0.86480       0.11175
    15    C    3  pz     Val( 2p)     0.96702       0.09612

    16    C    4  S      Cor( 1S)     1.99995     -10.97374
    17    C    4  S      Val( 2S)     1.08588      -0.18924
    18    C    4  px     Val( 2p)     0.97704       0.09949
    19    C    4  py     Val( 2p)     0.98968       0.09460
    20    C    4  pz     Val( 2p)     1.01355       0.09631

    21    C    5  S      Cor( 1S)     1.99995     -10.98656
    22    C    5  S      Val( 2S)     1.10002      -0.20642
    23    C    5  px     Val( 2p)     0.96158       0.10872
    24    C    5  py     Val( 2p)     0.95249       0.11126
    25    C    5  pz     Val( 2p)     0.99735       0.09927

    26    C    6  S      Cor( 1S)     1.99996     -10.97477
    27    C    6  S      Val( 2S)     1.08332      -0.18842
    28    C    6  px     Val( 2p)     0.97539       0.09752
    29    C    6  py     Val( 2p)     1.00383       0.09420
    30    C    6  pz     Val( 2p)     1.00082       0.09442

    31    C    7  S      Cor( 1S)     1.99996     -10.97461
    32    C    7  S      Val( 2S)     1.09629      -0.20094
    33    C    7  px     Val( 2p)     0.98675       0.08829
    34    C    7  py     Val( 2p)     0.98825       0.09139
    35    C    7  pz     Val( 2p)     1.02032       0.08668

    36    O    8  S      Cor( 1S)     1.99999     -20.14134
    37    O    8  S      Val( 2S)     1.74856      -0.99814
    38    O    8  px     Val( 2p)     1.68809      -0.26259
    39    O    8  py     Val( 2p)     1.11463      -0.01279
    40    O    8  pz     Val( 2p)     1.78269      -0.29758

    41    C    9  S      Cor( 1S)     1.99996     -10.98460
    42    C    9  S      Val( 2S)     1.08404      -0.18854
    43    C    9  px     Val( 2p)     0.94847       0.11941
    44    C    9  py     Val( 2p)     0.98457       0.11084
    45    C    9  pz     Val( 2p)     0.96135       0.11768

    46    C   10  S      Cor( 1S)     1.99997     -10.95956
    47    C   10  S      Val( 2S)     1.08078      -0.17731
    48    C   10  px     Val( 2p)     1.02056       0.08876
    49    C   10  py     Val( 2p)     1.00745       0.09257
    50    C   10  pz     Val( 2p)     1.02030       0.09009

    51    C   11  S      Cor( 1S)     1.99997     -10.95806
    52    C   11  S      Val( 2S)     1.07927      -0.17470
    53    C   11  px     Val( 2p)     1.02639       0.08813
    54    C   11  py     Val( 2p)     1.02677       0.09214
    55    C   11  pz     Val( 2p)     0.99885       0.09452

    56    H   12  S      Val( 1S)     0.96312       0.07277

    57    H   13  S      Val( 1S)     0.96302       0.07366

    58    H   14  S      Val( 1S)     0.96462       0.07201

    59    H   15  S      Val( 1S)     0.97568       0.06569

    60    H   16  S      Val( 1S)     0.99709       0.04904

    61    H   17  S      Val( 1S)     0.97069       0.07456

    62    H   18  S      Val( 1S)     0.97055       0.07262

    63    H   19  S      Val( 1S)     0.97639       0.07024

    64    H   20  S      Val( 1S)     0.97472       0.06733

    65    H   21  S      Val( 1S)     0.96886       0.07050

    66    H   22  S      Val( 1S)     0.97606       0.06150

    67    H   23  S      Val( 1S)     0.96504       0.07022

    68    H   24  S      Val( 1S)     0.81074       0.07351

    69    H   25  S      Val( 1S)     0.96582       0.08500

    70    H   26  S      Val( 1S)     0.96515       0.07896

    71    H   27  S      Val( 1S)     0.96506       0.07870

    72    H   28  S      Val( 1S)     0.96347       0.07912

    73    H   29  S      Val( 1S)     0.96732       0.07930

    74    H   30  S      Val( 1S)     0.96167       0.08422

    75    H   31  S      Val( 1S)     0.96313       0.08016


 Summary of Natural Population Analysis:                  
                                                          
                                       Natural Population 
                Natural  -----------------------------------------------
    Atom  No    Charge         Core      Valence    Rydberg      Total
 -----------------------------------------------------------------------
      C    1   -0.12623      1.99997     4.12625    0.00000     6.12623
      C    2    0.01481      1.99997     3.98523    0.00000     5.98519
      C    3    0.14467      1.99989     3.85544    0.00000     5.85533
      C    4   -0.06611      1.99995     4.06616    0.00000     6.06611
      C    5   -0.01139      1.99995     4.01144    0.00000     6.01139
      C    6   -0.06333      1.99996     4.06336    0.00000     6.06333
      C    7   -0.09157      1.99996     4.09161    0.00000     6.09157
      O    8   -0.33396      1.99999     6.33397    0.00000     8.33396
      C    9    0.02161      1.99996     3.97843    0.00000     5.97839
      C   10   -0.12905      1.99997     4.12908    0.00000     6.12905
      C   11   -0.13126      1.99997     4.13129    0.00000     6.13126
      H   12    0.03688      0.00000     0.96312    0.00000     0.96312
      H   13    0.03698      0.00000     0.96302    0.00000     0.96302
      H   14    0.03538      0.00000     0.96462    0.00000     0.96462
      H   15    0.02432      0.00000     0.97568    0.00000     0.97568
      H   16    0.00291      0.00000     0.99709    0.00000     0.99709
      H   17    0.02931      0.00000     0.97069    0.00000     0.97069
      H   18    0.02945      0.00000     0.97055    0.00000     0.97055
      H   19    0.02361      0.00000     0.97639    0.00000     0.97639
      H   20    0.02528      0.00000     0.97472    0.00000     0.97472
      H   21    0.03114      0.00000     0.96886    0.00000     0.96886
      H   22    0.02394      0.00000     0.97606    0.00000     0.97606
      H   23    0.03496      0.00000     0.96504    0.00000     0.96504
      H   24    0.18926      0.00000     0.81074    0.00000     0.81074
      H   25    0.03418      0.00000     0.96582    0.00000     0.96582
      H   26    0.03485      0.00000     0.96515    0.00000     0.96515
      H   27    0.03494      0.00000     0.96506    0.00000     0.96506
      H   28    0.03653      0.00000     0.96347    0.00000     0.96347
      H   29    0.03268      0.00000     0.96732    0.00000     0.96732
      H   30    0.03833      0.00000     0.96167    0.00000     0.96167
      H   31    0.03687      0.00000     0.96313    0.00000     0.96313
 =======================================================================
   * Total *    0.00000     21.99955    66.00045    0.00000    88.00000

                                 Natural Population      
 --------------------------------------------------------
   Core                      21.99955 ( 99.9980% of  22)
   Valence                   66.00045 (100.0007% of  66)
   Natural Minimal Basis     88.00000 (100.0000% of  88)
   Natural Rydberg Basis      0.00000 (  0.0000% of  88)
 --------------------------------------------------------

    Atom  No          Natural Electron Configuration
 ----------------------------------------------------------------------------
      C    1      [core]2S( 1.08)2p( 3.05)
      C    2      [core]2S( 1.08)2p( 2.91)
      C    3      [core]2S( 1.09)2p( 2.77)
      C    4      [core]2S( 1.09)2p( 2.98)
      C    5      [core]2S( 1.10)2p( 2.91)
      C    6      [core]2S( 1.08)2p( 2.98)
      C    7      [core]2S( 1.10)2p( 3.00)
      O    8      [core]2S( 1.75)2p( 4.59)
      C    9      [core]2S( 1.08)2p( 2.89)
      C   10      [core]2S( 1.08)2p( 3.05)
      C   11      [core]2S( 1.08)2p( 3.05)
      H   12            1S( 0.96)
      H   13            1S( 0.96)
      H   14            1S( 0.96)
      H   15            1S( 0.98)
      H   16            1S( 1.00)
      H   17            1S( 0.97)
      H   18            1S( 0.97)
      H   19            1S( 0.98)
      H   20            1S( 0.97)
      H   21            1S( 0.97)
      H   22            1S( 0.98)
      H   23            1S( 0.97)
      H   24            1S( 0.81)
      H   25            1S( 0.97)
      H   26            1S( 0.97)
      H   27            1S( 0.97)
      H   28            1S( 0.96)
      H   29            1S( 0.97)
      H   30            1S( 0.96)
      H   31            1S( 0.96)


 NATURAL BOND ORBITAL ANALYSIS:

                       Occupancies       Lewis Structure    Low   High
           Occ.    -------------------  -----------------   occ   occ
  Cycle   Thresh.   Lewis   Non-Lewis     CR  BD  3C  LP    (L)   (NL)   Dev
 =============================================================================
   1(1)    1.90    87.64627   0.35373     11  31   0   2     0      0    0.02
 -----------------------------------------------------------------------------

 Structure accepted: No low occupancy Lewis orbitals

 --------------------------------------------------------
   Core                     21.99954 ( 99.998% of  22)
   Valence Lewis            65.64672 ( 99.465% of  66)
  ==================       ============================
   Total Lewis              87.64627 ( 99.598% of  88)
  -----------------------------------------------------
   Valence non-Lewis         0.35373 (  0.402% of  88)
   Rydberg non-Lewis         0.00000 (  0.000% of  88)
  ==================       ============================
   Total non-Lewis           0.35373 (  0.402% of  88)
 --------------------------------------------------------


       (Occupancy)   Bond orbital/ Coefficients/ Hybrids
 ---------------------------------------------------------------------------------
     1. (1.98928) BD ( 1) C   1 - C   2  
                ( 50.81%)   0.7128* C   1 s( 25.74%)p 2.88( 74.26%)
                                            0.0001  0.5074  0.8455  0.0221 -0.1652
                ( 49.19%)   0.7013* C   2 s( 25.28%)p 2.96( 74.72%)
                                            0.0000  0.5028 -0.8427 -0.0123  0.1923
     2. (1.99502) BD ( 1) C   1 - H  12  
                ( 51.85%)   0.7201* C   1 s( 24.75%)p 3.04( 75.25%)
                                            0.0000  0.4975 -0.4153  0.5533 -0.5234
                ( 48.15%)   0.6939* H  12 s(100.00%)
                                            1.0000
     3. (1.99496) BD ( 1) C   1 - H  13  
                ( 51.86%)   0.7202* C   1 s( 24.71%)p 3.05( 75.29%)
                                            0.0000  0.4971 -0.3036 -0.8017 -0.1342
                ( 48.14%)   0.6938* H  13 s(100.00%)
                                            1.0000
     4. (1.99528) BD ( 1) C   1 - H  14  
                ( 51.81%)   0.7198* C   1 s( 24.80%)p 3.03( 75.20%)
                                            0.0000  0.4980 -0.1435  0.2250  0.8251
                ( 48.19%)   0.6942* H  14 s(100.00%)
                                            1.0000
     5. (1.98603) BD ( 1) C   2 - C   6  
                ( 49.67%)   0.7047* C   2 s( 25.17%)p 2.97( 74.83%)
                                            0.0000  0.5017  0.4259 -0.5449  0.5196
                ( 50.33%)   0.7095* C   6 s( 25.39%)p 2.94( 74.61%)
                                            0.0001  0.5039 -0.4299  0.5489 -0.5098
     6. (1.98403) BD ( 1) C   2 - C   7  
                ( 49.32%)   0.7023* C   2 s( 25.06%)p 2.99( 74.94%)
                                            0.0000  0.5006  0.3104  0.8016  0.1028
                ( 50.68%)   0.7119* C   7 s( 25.79%)p 2.88( 74.21%)
                                            0.0001  0.5078 -0.2916 -0.8081 -0.0642
     7. (1.98536) BD ( 1) C   2 - H  15  
                ( 51.15%)   0.7152* C   2 s( 24.50%)p 3.08( 75.50%)
                                            0.0000  0.4949  0.1104 -0.2458 -0.8261
                ( 48.85%)   0.6990* H  15 s(100.00%)
                                            1.0000
     8. (1.98292) BD ( 1) C   3 - C   5  
                ( 50.68%)   0.7119* C   3 s( 26.61%)p 2.76( 73.39%)
                                            0.0000  0.5158  0.4457 -0.6481 -0.3394
                ( 49.32%)   0.7023* C   5 s( 25.01%)p 3.00( 74.99%)
                                            0.0001  0.5001 -0.4041  0.6808  0.3509
     9. (1.98687) BD ( 1) C   3 - C   7  
                ( 49.28%)   0.7020* C   3 s( 25.60%)p 2.91( 74.40%)
                                            0.0000  0.5059 -0.8310 -0.0507 -0.2255
                ( 50.72%)   0.7122* C   7 s( 25.33%)p 2.95( 74.67%)
                                            0.0000  0.5033  0.8419 -0.0030  0.1946
    10. (1.98841) BD ( 1) C   3 - O   8  
                ( 41.04%)   0.6406* C   3 s( 22.48%)p 3.45( 77.52%)
                                            0.0000 -0.4742 -0.3248 -0.7598  0.3039
                ( 58.96%)   0.7678* O   8 s( 16.50%)p 5.06( 83.50%)
                                            0.0000 -0.4062  0.3869  0.7533 -0.3433
    11. (1.98932) BD ( 1) C   3 - H  16  
                ( 50.47%)   0.7104* C   3 s( 25.32%)p 2.95( 74.68%)
                                            0.0000  0.5031  0.0726 -0.0006  0.8611
                ( 49.53%)   0.7038* H  16 s(100.00%)
                                            1.0000
    12. (1.98373) BD ( 1) C   4 - C   5  
                ( 50.41%)   0.7100* C   4 s( 25.59%)p 2.91( 74.41%)
                                            0.0001  0.5058  0.2989  0.7530 -0.2962
                ( 49.59%)   0.7042* C   5 s( 25.44%)p 2.93( 74.56%)
                                            0.0000  0.5044 -0.2989 -0.7295  0.3523
    13. (1.98882) BD ( 1) C   4 - C   6  
                ( 50.00%)   0.7071* C   4 s( 25.31%)p 2.95( 74.69%)
                                            0.0000  0.5031 -0.8381  0.0726  0.1979
                ( 50.00%)   0.7071* C   6 s( 25.12%)p 2.98( 74.88%)
                                            0.0000  0.5012  0.8343 -0.0193 -0.2288
    14. (1.99022) BD ( 1) C   4 - H  17  
                ( 51.48%)   0.7175* C   4 s( 24.73%)p 3.04( 75.27%)
                                            0.0000  0.4973  0.4454 -0.2326  0.7073
                ( 48.52%)   0.6966* H  17 s(100.00%)
                                            1.0000
    15. (1.99153) BD ( 1) C   4 - H  18  
                ( 51.46%)   0.7173* C   4 s( 24.37%)p 3.10( 75.63%)
                                            0.0000  0.4937  0.0993 -0.6112 -0.6106
                ( 48.54%)   0.6967* H  18 s(100.00%)
                                            1.0000
    16. (1.97874) BD ( 1) C   5 - C   9  
                ( 50.42%)   0.7101* C   5 s( 25.69%)p 2.89( 74.31%)
                                            0.0001  0.5068  0.8497  0.0651  0.1300
                ( 49.58%)   0.7041* C   9 s( 25.30%)p 2.95( 74.70%)
                                            0.0001  0.5030 -0.8586 -0.0920 -0.0373
    17. (1.98442) BD ( 1) C   5 - H  19  
                ( 51.08%)   0.7147* C   5 s( 23.86%)p 3.19( 76.14%)
                                            0.0000  0.4885 -0.1593 -0.0112 -0.8578
                ( 48.92%)   0.6994* H  19 s(100.00%)
                                            1.0000
    18. (1.99146) BD ( 1) C   6 - H  20  
                ( 51.29%)   0.7162* C   6 s( 24.41%)p 3.10( 75.59%)
                                            0.0000  0.4940 -0.0641  0.2635  0.8261
                ( 48.71%)   0.6979* H  20 s(100.00%)
                                            1.0000
    19. (1.99021) BD ( 1) C   6 - H  21  
                ( 51.53%)   0.7179* C   6 s( 25.08%)p 2.99( 74.92%)
                                            0.0000  0.5008 -0.3392 -0.7930 -0.0729
                ( 48.47%)   0.6962* H  21 s(100.00%)
                                            1.0000
    20. (1.99105) BD ( 1) C   7 - H  22  
                ( 51.21%)   0.7156* C   7 s( 24.28%)p 3.12( 75.72%)
                                            0.0000  0.4927 -0.4376  0.4179  0.6254
                ( 48.79%)   0.6985* H  22 s(100.00%)
                                            1.0000
    21. (1.98977) BD ( 1) C   7 - H  23  
                ( 51.71%)   0.7191* C   7 s( 24.61%)p 3.06( 75.39%)
                                            0.0000  0.4960 -0.1210  0.4152 -0.7529
                ( 48.29%)   0.6949* H  23 s(100.00%)
                                            1.0000
    22. (1.98898) BD ( 1) O   8 - H  24  
                ( 59.44%)   0.7710* O   8 s( 16.71%)p 4.98( 83.29%)
                                            0.0000 -0.4088  0.5004 -0.6555 -0.3909
                ( 40.56%)   0.6369* H  24 s(100.00%)
                                           -1.0000
    23. (1.98883) BD ( 1) C   9 - C  10  
                ( 48.93%)   0.6995* C   9 s( 25.02%)p 3.00( 74.98%)
                                            0.0000  0.5002  0.3825 -0.6922 -0.3525
                ( 51.07%)   0.7146* C  10 s( 25.75%)p 2.88( 74.25%)
                                            0.0001  0.5074 -0.4143  0.6596  0.3686
    24. (1.99027) BD ( 1) C   9 - C  11  
                ( 48.92%)   0.6994* C   9 s( 25.21%)p 2.97( 74.79%)
                                            0.0000  0.5021  0.2496  0.0812  0.8240
                ( 51.08%)   0.7147* C  11 s( 25.90%)p 2.86( 74.10%)
                                            0.0001  0.5090 -0.2882 -0.1073 -0.8040
    25. (1.98391) BD ( 1) C   9 - H  25  
                ( 51.59%)   0.7183* C   9 s( 24.46%)p 3.09( 75.54%)
                                            0.0000  0.4946  0.2328  0.7112 -0.4420
                ( 48.41%)   0.6958* H  25 s(100.00%)
                                            1.0000
    26. (1.99571) BD ( 1) C  10 - H  26  
                ( 51.81%)   0.7198* C  10 s( 24.84%)p 3.03( 75.16%)
                                            0.0000  0.4984 -0.1513 -0.7278  0.4461
                ( 48.19%)   0.6942* H  26 s(100.00%)
                                            1.0000
    27. (1.99508) BD ( 1) C  10 - H  27  
                ( 51.77%)   0.7195* C  10 s( 24.71%)p 3.05( 75.29%)
                                            0.0000  0.4971 -0.2784 -0.1016 -0.8155
                ( 48.23%)   0.6945* H  27 s(100.00%)
                                            1.0000
    28. (1.99470) BD ( 1) C  10 - H  28  
                ( 51.82%)   0.7199* C  10 s( 24.70%)p 3.05( 75.30%)
                                            0.0000  0.4969  0.8532  0.1581 -0.0080
                ( 48.18%)   0.6941* H  28 s(100.00%)
                                            1.0000
    29. (1.99476) BD ( 1) C  11 - H  29  
                ( 51.68%)   0.7189* C  11 s( 24.82%)p 3.03( 75.18%)
                                            0.0000  0.4982 -0.2139 -0.6871  0.4837
                ( 48.32%)   0.6951* H  29 s(100.00%)
                                            1.0000
    30. (1.99482) BD ( 1) C  11 - H  30  
                ( 51.94%)   0.7207* C  11 s( 24.76%)p 3.04( 75.24%)
                                            0.0000  0.4976 -0.3515  0.7136  0.3458
                ( 48.06%)   0.6933* H  30 s(100.00%)
                                            1.0000
    31. (1.99427) BD ( 1) C  11 - H  31  
                ( 51.83%)   0.7199* C  11 s( 24.51%)p 3.08( 75.49%)
                                            0.0000  0.4951  0.8647  0.0844 -0.0078
                ( 48.17%)   0.6940* H  31 s(100.00%)
                                            1.0000
    32. (1.99997) CR ( 1) C   1           s(100.00%)
                                            1.0000  0.0000 -0.0001  0.0000  0.0000
    33. (1.99997) CR ( 1) C   2           s(100.00%)
                                            1.0000  0.0000  0.0000  0.0000  0.0000
    34. (1.99989) CR ( 1) C   3           s(100.00%)
                                            1.0000  0.0000  0.0000  0.0001  0.0000
    35. (1.99995) CR ( 1) C   4           s(100.00%)
                                            1.0000 -0.0001  0.0000 -0.0001  0.0000
    36. (1.99995) CR ( 1) C   5           s(100.00%)
                                            1.0000 -0.0001  0.0000  0.0000  0.0000
    37. (1.99996) CR ( 1) C   6           s(100.00%)
                                            1.0000  0.0000  0.0000 -0.0001  0.0001
    38. (1.99996) CR ( 1) C   7           s(100.00%)
                                            1.0000  0.0000  0.0000  0.0001  0.0000
    39. (1.99999) CR ( 1) O   8           s(100.00%)
                                            1.0000  0.0000  0.0000  0.0000  0.0000
    40. (1.99996) CR ( 1) C   9           s(100.00%)
                                            1.0000  0.0000  0.0001  0.0000  0.0000
    41. (1.99997) CR ( 1) C  10           s(100.00%)
                                            1.0000  0.0000  0.0001 -0.0001  0.0000
    42. (1.99997) CR ( 1) C  11           s(100.00%)
                                            1.0000  0.0000  0.0001  0.0000  0.0001
    43. (1.99223) LP ( 1) O   8           s( 66.68%)p 0.50( 33.32%)
                                            0.0000  0.8166  0.4165  0.0455 -0.3970
    44. (1.97578) LP ( 2) O   8           s(  0.11%)p99.99( 99.89%)
                                            0.0000  0.0331  0.6530  0.0270  0.7561
    45. (0.00977) BD*( 1) C   1 - C   2  
                ( 49.19%)   0.7013* C   1 s( 25.74%)p 2.88( 74.26%)
                                           -0.0001 -0.5074 -0.8455 -0.0221  0.1652
                ( 50.81%)  -0.7128* C   2 s( 25.28%)p 2.96( 74.72%)
                                            0.0000 -0.5028  0.8427  0.0123 -0.1923
    46. (0.00501) BD*( 1) C   1 - H  12  
                ( 48.15%)   0.6939* C   1 s( 24.75%)p 3.04( 75.25%)
                                            0.0000 -0.4975  0.4153 -0.5533  0.5234
                ( 51.85%)  -0.7201* H  12 s(100.00%)
                                           -1.0000
    47. (0.00518) BD*( 1) C   1 - H  13  
                ( 48.14%)   0.6938* C   1 s( 24.71%)p 3.05( 75.29%)
                                            0.0000 -0.4971  0.3036  0.8017  0.1342
                ( 51.86%)  -0.7202* H  13 s(100.00%)
                                           -1.0000
    48. (0.00593) BD*( 1) C   1 - H  14  
                ( 48.19%)   0.6942* C   1 s( 24.80%)p 3.03( 75.20%)
                                            0.0000 -0.4980  0.1435 -0.2250 -0.8251
                ( 51.81%)  -0.7198* H  14 s(100.00%)
                                           -1.0000
    49. (0.01557) BD*( 1) C   2 - C   6  
                ( 50.33%)   0.7095* C   2 s( 25.17%)p 2.97( 74.83%)
                                            0.0000  0.5017  0.4259 -0.5449  0.5196
                ( 49.67%)  -0.7047* C   6 s( 25.39%)p 2.94( 74.61%)
                                            0.0001  0.5039 -0.4299  0.5489 -0.5098
    50. (0.01607) BD*( 1) C   2 - C   7  
                ( 50.68%)   0.7119* C   2 s( 25.06%)p 2.99( 74.94%)
                                            0.0000  0.5006  0.3104  0.8016  0.1028
                ( 49.32%)  -0.7023* C   7 s( 25.79%)p 2.88( 74.21%)
                                            0.0001  0.5078 -0.2916 -0.8081 -0.0642
    51. (0.01127) BD*( 1) C   2 - H  15  
                ( 48.85%)   0.6990* C   2 s( 24.50%)p 3.08( 75.50%)
                                            0.0000 -0.4949 -0.1104  0.2458  0.8261
                ( 51.15%)  -0.7152* H  15 s(100.00%)
                                           -1.0000
    52. (0.02727) BD*( 1) C   3 - C   5  
                ( 49.32%)   0.7023* C   3 s( 26.61%)p 2.76( 73.39%)
                                            0.0000 -0.5158 -0.4457  0.6481  0.3394
                ( 50.68%)  -0.7119* C   5 s( 25.01%)p 3.00( 74.99%)
                                           -0.0001 -0.5001  0.4041 -0.6808 -0.3509
    53. (0.02736) BD*( 1) C   3 - C   7  
                ( 50.72%)   0.7122* C   3 s( 25.60%)p 2.91( 74.40%)
                                            0.0000  0.5059 -0.8310 -0.0507 -0.2255
                ( 49.28%)  -0.7020* C   7 s( 25.33%)p 2.95( 74.67%)
                                            0.0000  0.5033  0.8419 -0.0030  0.1946
    54. (0.02100) BD*( 1) C   3 - O   8  
                ( 58.96%)   0.7678* C   3 s( 22.48%)p 3.45( 77.52%)
                                            0.0000 -0.4742 -0.3248 -0.7598  0.3039
                ( 41.04%)  -0.6406* O   8 s( 16.50%)p 5.06( 83.50%)
                                            0.0000 -0.4062  0.3869  0.7533 -0.3433
    55. (0.02340) BD*( 1) C   3 - H  16  
                ( 49.53%)   0.7038* C   3 s( 25.32%)p 2.95( 74.68%)
                                            0.0000 -0.5031 -0.0726  0.0006 -0.8611
                ( 50.47%)  -0.7104* H  16 s(100.00%)
                                           -1.0000
    56. (0.01634) BD*( 1) C   4 - C   5  
                ( 49.59%)   0.7042* C   4 s( 25.59%)p 2.91( 74.41%)
                                           -0.0001 -0.5058 -0.2989 -0.7530  0.2962
                ( 50.41%)  -0.7100* C   5 s( 25.44%)p 2.93( 74.56%)
                                            0.0000 -0.5044  0.2989  0.7295 -0.3523
    57. (0.01179) BD*( 1) C   4 - C   6  
                ( 50.00%)   0.7071* C   4 s( 25.31%)p 2.95( 74.69%)
                                            0.0000 -0.5031  0.8381 -0.0726 -0.1979
                ( 50.00%)  -0.7071* C   6 s( 25.12%)p 2.98( 74.88%)
                                            0.0000 -0.5012 -0.8343  0.0193  0.2288
    58. (0.00975) BD*( 1) C   4 - H  17  
                ( 48.52%)   0.6966* C   4 s( 24.73%)p 3.04( 75.27%)
                                            0.0000 -0.4973 -0.4454  0.2326 -0.7073
                ( 51.48%)  -0.7175* H  17 s(100.00%)
                                           -1.0000
    59. (0.00740) BD*( 1) C   4 - H  18  
                ( 48.54%)   0.6967* C   4 s( 24.37%)p 3.10( 75.63%)
                                            0.0000 -0.4937 -0.0993  0.6112  0.6106
                ( 51.46%)  -0.7173* H  18 s(100.00%)
                                           -1.0000
    60. (0.02204) BD*( 1) C   5 - C   9  
                ( 49.58%)   0.7041* C   5 s( 25.69%)p 2.89( 74.31%)
                                           -0.0001 -0.5068 -0.8497 -0.0651 -0.1300
                ( 50.42%)  -0.7101* C   9 s( 25.30%)p 2.95( 74.70%)
                                           -0.0001 -0.5030  0.8586  0.0920  0.0373
    61. (0.01107) BD*( 1) C   5 - H  19  
                ( 48.92%)   0.6994* C   5 s( 23.86%)p 3.19( 76.14%)
                                            0.0000 -0.4885  0.1593  0.0112  0.8578
                ( 51.08%)  -0.7147* H  19 s(100.00%)
                                           -1.0000
    62. (0.00931) BD*( 1) C   6 - H  20  
                ( 48.71%)   0.6979* C   6 s( 24.41%)p 3.10( 75.59%)
                                            0.0000 -0.4940  0.0641 -0.2635 -0.8261
                ( 51.29%)  -0.7162* H  20 s(100.00%)
                                           -1.0000
    63. (0.00830) BD*( 1) C   6 - H  21  
                ( 48.47%)   0.6962* C   6 s( 25.08%)p 2.99( 74.92%)
                                            0.0000 -0.5008  0.3392  0.7930  0.0729
                ( 51.53%)  -0.7179* H  21 s(100.00%)
                                           -1.0000
    64. (0.00902) BD*( 1) C   7 - H  22  
                ( 48.79%)   0.6985* C   7 s( 24.28%)p 3.12( 75.72%)
                                            0.0000 -0.4927  0.4376 -0.4179 -0.6254
                ( 51.21%)  -0.7156* H  22 s(100.00%)
                                           -1.0000
    65. (0.00821) BD*( 1) C   7 - H  23  
                ( 48.29%)   0.6949* C   7 s( 24.61%)p 3.06( 75.39%)
                                            0.0000 -0.4960  0.1210 -0.4152  0.7529
                ( 51.71%)  -0.7191* H  23 s(100.00%)
                                           -1.0000
    66. (0.00677) BD*( 1) O   8 - H  24  
                ( 40.56%)   0.6369* O   8 s( 16.71%)p 4.98( 83.29%)
                                            0.0000  0.4088 -0.5004  0.6555  0.3909
                ( 59.44%)  -0.7710* H  24 s(100.00%)
                                            1.0000
    67. (0.01024) BD*( 1) C   9 - C  10  
                ( 51.07%)   0.7146* C   9 s( 25.02%)p 3.00( 74.98%)
                                            0.0000  0.5002  0.3825 -0.6922 -0.3525
                ( 48.93%)  -0.6995* C  10 s( 25.75%)p 2.88( 74.25%)
                                            0.0001  0.5074 -0.4143  0.6596  0.3686
    68. (0.01110) BD*( 1) C   9 - C  11  
                ( 51.08%)   0.7147* C   9 s( 25.21%)p 2.97( 74.79%)
                                            0.0000  0.5021  0.2496  0.0812  0.8240
                ( 48.92%)  -0.6994* C  11 s( 25.90%)p 2.86( 74.10%)
                                            0.0001  0.5090 -0.2882 -0.1073 -0.8040
    69. (0.01057) BD*( 1) C   9 - H  25  
                ( 48.41%)   0.6958* C   9 s( 24.46%)p 3.09( 75.54%)
                                            0.0000 -0.4946 -0.2328 -0.7112  0.4420
                ( 51.59%)  -0.7183* H  25 s(100.00%)
                                           -1.0000
    70. (0.00644) BD*( 1) C  10 - H  26  
                ( 48.19%)   0.6942* C  10 s( 24.84%)p 3.03( 75.16%)
                                            0.0000 -0.4984  0.1513  0.7278 -0.4461
                ( 51.81%)  -0.7198* H  26 s(100.00%)
                                           -1.0000
    71. (0.00531) BD*( 1) C  10 - H  27  
                ( 48.23%)   0.6945* C  10 s( 24.71%)p 3.05( 75.29%)
                                            0.0000 -0.4971  0.2784  0.1016  0.8155
                ( 51.77%)  -0.7195* H  27 s(100.00%)
                                           -1.0000
    72. (0.00484) BD*( 1) C  10 - H  28  
                ( 48.18%)   0.6941* C  10 s( 24.70%)p 3.05( 75.30%)
                                            0.0000 -0.4969 -0.8532 -0.1581  0.0080
[...]
   22      20.0427       11.2884       8.7543         5.6308      14.4119
   39     271.1748       -0.0058     271.1807        -0.0038     271.1787
   43      35.2879        0.2315      35.0563        -2.1424      37.4302
   44       2.0783      -36.8043      38.8826       -37.9056      39.9839
 Sum      354.4219      -18.5607     372.9826       -23.3217     377.7436

 Contributions to Isotropic shielding for atom    9 (   214.6917 ppm):
                         Standard Origin              Atomic Origin
 NLMO      Total    Paramagnetic  Diamagnetic   Paramagnetic  Diamagnetic
   10       0.1017       -0.4051       0.5068        -1.3190       1.4206
   16       5.9257       -9.2938      15.2195        -1.6495       7.5753
   17       0.4270       -0.0036       0.4306        -0.5919       1.0190
   23      -1.4191       -4.2893       2.8701        -8.8726       7.4535
   24      -0.9554       -6.1473       5.1920        -8.4195       7.4641
   25       6.2119       -1.4581       7.6700        -4.8820      11.0939
   26       1.0440       -0.3056       1.3496         0.0206       1.0234
   27       0.6765       -0.6973       1.3738        -0.3672       1.0437
   28       0.6551       -0.3151       0.9702        -0.3769       1.0319
   29       0.9574       -0.2511       1.2085        -0.0717       1.0291
   30       0.6215       -0.5954       1.2169        -0.3933       1.0148
   31       0.6148       -0.2083       0.8231        -0.4178       1.0326
   40     199.9243       -0.0018     199.9261         0.0024     199.9219
 Sum      214.7855      -23.9718     238.7573       -27.3383     242.1238

 Contributions to Isotropic shielding for atom   10 (   221.5325 ppm):
                         Standard Origin              Atomic Origin
 NLMO      Total    Paramagnetic  Diamagnetic   Paramagnetic  Diamagnetic
   23       4.4614      -11.4376      15.8990        -3.5583       8.0198
   24      -0.5500        0.0597      -0.6097        -1.2241       0.6741
   25       0.3490        0.1400       0.2090        -0.6918       1.0408
   26       6.2058       -4.1321      10.3379        -4.9166      11.1225
   27       5.9281       -4.3226      10.2506        -5.1610      11.0891
   28       4.9417        2.8969       2.0448        -6.1660      11.1077
   31      -0.0951       -0.5372       0.4421        -1.0164       0.9213
   41     200.0745       -0.0036     200.0781         0.0022     200.0723
 Sum      221.3154      -17.3364     238.6518       -22.7322     244.0475

 Contributions to Isotropic shielding for atom   11 (   224.5658 ppm):
                         Standard Origin              Atomic Origin
 NLMO      Total    Paramagnetic  Diamagnetic   Paramagnetic  Diamagnetic
   10       0.0632       -0.1457       0.2089        -1.0322       1.0954
   23      -0.4285        0.0824      -0.5109        -1.0864       0.6579
   24       4.3514       -9.5452      13.8966        -3.6833       8.0347
   25       0.3529       -0.0394       0.3923        -0.6786       1.0315
   29       6.8372       -4.0551      10.8923        -4.2367      11.0740
   30       6.8381       -4.8867      11.7248        -4.3087      11.1468
   31       5.9733        3.8474       2.1258        -5.1156      11.0889
   42     200.0732       -0.0027     200.0758         0.0017     200.0715
 Sum      224.0607      -14.7450     238.8057       -20.1399     244.2006

 Contributions to Isotropic shielding for atom   12 (    32.4122 ppm):
                         Standard Origin              Atomic Origin
 NLMO      Total    Paramagnetic  Diamagnetic   Paramagnetic  Diamagnetic
    1       1.4494       -0.7413       2.1907         0.4582       0.9911
    2      26.3259        0.1552      26.1706         0.4212      25.9047
    3       1.8680        2.2267      -0.3586         0.0322       1.8358
    4       1.9184        1.5839       0.3345         0.0860       1.8324
    6      -0.1328        0.7388      -0.8716        -1.0530       0.9202
 Sum       31.4289        3.9633      27.4656        -0.0554      31.4843

 Contributions to Isotropic shielding for atom   13 (    32.5055 ppm):
                         Standard Origin              Atomic Origin
 NLMO      Total    Paramagnetic  Diamagnetic   Paramagnetic  Diamagnetic
    1       1.4545       -0.6454       2.0999         0.4612       0.9933
    2       1.9334        2.2607      -0.3273         0.0917       1.8418
    3      26.3554        0.1635      26.1919         0.4532      25.9022
    4       1.8967        1.6364       0.2603         0.0568       1.8399
    5      -0.1423        0.7587      -0.9010        -1.0194       0.8771
 Sum       31.4977        4.1740      27.3238         0.0435      31.4542

 Contributions to Isotropic shielding for atom   14 (    32.7592 ppm):
                         Standard Origin              Atomic Origin
 NLMO      Total    Paramagnetic  Diamagnetic   Paramagnetic  Diamagnetic
    1       1.6598       -1.2561       2.9159         0.7834       0.8765
    2       1.9731        1.7930       0.1800         0.1482       1.8249
    3       1.9237        1.8350       0.0888         0.0952       1.8286
    4      26.3641        0.2794      26.0847         0.4411      25.9230
 Sum       31.9207        2.6513      29.2695         1.4678      30.4529

 Contributions to Isotropic shielding for atom   15 (    32.5267 ppm):
                         Standard Origin              Atomic Origin
 NLMO      Total    Paramagnetic  Diamagnetic   Paramagnetic  Diamagnetic
    1       0.7847        2.1529      -1.3682        -0.1944       0.9790
    2       0.2606       -0.9659       1.2265        -0.7007       0.9613
    3       0.2596       -0.9832       1.2428        -0.7110       0.9706
    5       1.4674        0.2341       1.2333         0.5818       0.8855
    6       1.5443        0.1780       1.3662         0.6459       0.8984
    7      26.3992        0.0263      26.3729         0.3626      26.0366
   21      -0.0505       -0.3539       0.3034        -1.1797       1.1293
 Sum       30.6654        0.2883      30.3770        -1.1954      31.8608

 Contributions to Isotropic shielding for atom   16 (    32.0603 ppm):
                         Standard Origin              Atomic Origin
 NLMO      Total    Paramagnetic  Diamagnetic   Paramagnetic  Diamagnetic
    8       1.0426       -0.1998       1.2424        -0.0380       1.0806
   10       0.6721        0.9189      -0.2467        -0.8999       1.5720
   11      26.7214        0.3485      26.3728         0.6579      26.0635
   20       0.0014       -0.8121       0.8135        -1.1157       1.1171
   22       0.3185       -0.8587       1.1771        -0.6484       0.9669
   24       0.0341       -0.7114       0.7455        -0.9733       1.0074
   30      -0.3364       -1.3674       1.0310        -0.9315       0.5951
 Sum       28.4536       -2.6820      31.1356        -3.9489      32.4025

 Contributions to Isotropic shielding for atom   17 (    32.5765 ppm):
                         Standard Origin              Atomic Origin
 NLMO      Total    Paramagnetic  Diamagnetic   Paramagnetic  Diamagnetic
   12       1.3203        0.2774       1.0429         0.4115       0.9088
   13       1.0645        0.9989       0.0656        -0.0388       1.1033
   14      26.4091        0.0656      26.3435         0.4265      25.9825
   15       2.0993        1.5588       0.5406         0.3311       1.7683
   16      -0.1948       -0.0429      -0.1519        -1.1076       0.9128
   18       0.0112       -0.6519       0.6631        -1.1251       1.1363
   26      -0.2192       -1.2488       1.0296        -0.8103       0.5911
   29      -0.3632       -1.4452       1.0820        -0.8749       0.5117
 Sum       30.1272       -0.4881      30.6153        -2.7876      32.9148

 Contributions to Isotropic shielding for atom   18 (    32.3726 ppm):
                         Standard Origin              Atomic Origin
 NLMO      Total    Paramagnetic  Diamagnetic   Paramagnetic  Diamagnetic
   12       1.2849        0.4124       0.8725         0.1972       1.0877
   13       1.0569        1.2012      -0.1443         0.0290       1.0278
   14       2.0950        1.4714       0.6236         0.3092       1.7858
   15      26.3962       -0.0262      26.4224         0.4117      25.9845
   17      -0.0182       -0.1728       0.1547        -1.0624       1.0442
   19      -0.0213       -0.6476       0.6263        -1.1169       1.0956
   26      -0.1774       -1.1627       0.9854        -0.9352       0.7578
 Sum       30.6162        1.0756      29.5406        -2.1672      32.7834

 Contributions to Isotropic shielding for atom   19 (    32.2027 ppm):
                         Standard Origin              Atomic Origin
 NLMO      Total    Paramagnetic  Diamagnetic   Paramagnetic  Diamagnetic
    8       1.2164        0.6841       0.5323         0.3157       0.9007
   10       0.1666       -0.4475       0.6141        -1.2088       1.3754
   12       1.2231        0.6528       0.5703         0.2094       1.0137
   15      -0.0059       -0.6367       0.6308        -1.0956       1.0897
   16       1.0758        1.2046      -0.1288        -0.1444       1.2202
   17      26.3889       -0.0057      26.3946         0.3814      26.0075
   27      -0.1326       -1.4419       1.3093        -1.0115       0.8789
 Sum       29.9323        0.0097      29.9226        -2.5539      32.4862

 Contributions to Isotropic shielding for atom   20 (    32.8633 ppm):
                         Standard Origin              Atomic Origin
 NLMO      Total    Paramagnetic  Diamagnetic   Paramagnetic  Diamagnetic
    4      -0.0385       -1.3084       1.2699        -0.9199       0.8814
    5       1.1911        0.5936       0.5975         0.3364       0.8547
   13       1.3905       -0.0363       1.4268         0.4481       0.9424
   14      -0.0468       -0.2323       0.1855        -1.1696       1.1227
   18      26.4836        0.1428      26.3408         0.4106      26.0730
   19       1.9587        1.8424       0.1163         0.1772       1.7814
 Sum       30.9385        1.0018      29.9367        -0.7172      31.6557

 Contributions to Isotropic shielding for atom   21 (    32.4959 ppm):
                         Standard Origin              Atomic Origin
 NLMO      Total    Paramagnetic  Diamagnetic   Paramagnetic  Diamagnetic
    1      -0.0873        0.0579      -0.1452        -1.0007       0.9135
    3      -0.0749       -1.4530       1.3781        -0.9672       0.8923
    5       0.9912        1.2532      -0.2620         0.1252       0.8660
   13       1.2272        0.7258       0.5013         0.2233       1.0038
   15      -0.0024        0.0380      -0.0404        -1.1412       1.1388
   18       2.0659        1.5956       0.4704         0.3116       1.7543
   19      26.4194       -0.0239      26.4432         0.4875      25.9319
 Sum       30.5392        2.1937      28.3455        -1.9614      32.5006

 Contributions to Isotropic shielding for atom   22 (    32.7303 ppm):
                         Standard Origin              Atomic Origin
 NLMO      Total    Paramagnetic  Diamagnetic   Paramagnetic  Diamagnetic
    1      -0.1545       -0.3264       0.1719        -1.2218       1.0673
    4       0.0002       -1.2805       1.2807        -0.9431       0.9433
    6       1.0266        1.1313      -0.1047         0.1343       0.8923
    9       1.2512        0.4817       0.7694         0.2554       0.9958
   10      -0.1517        0.3744      -0.5262        -1.0139       0.8622
   11      -0.0854       -0.0904       0.0050        -1.1423       1.0569
   20      26.5615       -0.0348      26.5963         0.4605      26.1009
   21       1.9853        1.7764       0.2088         0.1088       1.8765
 Sum       30.4331        2.0318      28.4013        -3.3620      33.7951

 Contributions to Isotropic shielding for atom   23 (    32.1831 ppm):
                         Standard Origin              Atomic Origin
 NLMO      Total    Paramagnetic  Diamagnetic   Paramagnetic  Diamagnetic
    2      -0.0648       -1.2708       1.2060        -0.9124       0.8477
    6       0.9948        0.8319       0.1629        -0.0562       1.0510
    7       0.0182       -0.4477       0.4659        -1.0363       1.0544
    9       1.3532        0.3166       1.0366         0.4871       0.8661
   10      -0.1829        0.0342      -0.2171        -1.6264       1.4435
   20       1.9302        1.7962       0.1341         0.1253       1.8049
   21      26.2639        0.0786      26.1853         0.4575      25.8063
 Sum       30.3126        1.3389      28.9737        -2.5613      32.8740

 Contributions to Isotropic shielding for atom   24 (    34.8647 ppm):
                         Standard Origin              Atomic Origin
 NLMO      Total    Paramagnetic  Diamagnetic   Paramagnetic  Diamagnetic
    9      -0.2079        0.4115      -0.6194        -1.2532       1.0453
   10       1.3292        2.1604      -0.8312         0.6203       0.7089
   22      23.0645       -0.5241      23.5885        -0.1259      23.1903
   43       4.2341        0.9258       3.3083         2.3046       1.9294
   44       5.4659        2.3208       3.1451         2.3009       3.1650
 Sum       33.8858        5.2945      28.5913         3.8468      30.0390

 Contributions to Isotropic shielding for atom   25 (    31.7828 ppm):
                         Standard Origin              Atomic Origin
 NLMO      Total    Paramagnetic  Diamagnetic   Paramagnetic  Diamagnetic
   10       0.1580       -0.4546       0.6126        -1.2339       1.3918
   16       1.6215       -0.1847       1.8061         0.5930       1.0285
   23       0.8288        1.9347      -1.1059        -0.1982       1.0270
   24       0.9331        1.4990      -0.5659        -0.0968       1.0299
   25      26.1819       -0.0732      26.2551         0.4176      25.7643
   43      -0.6712        0.0067      -0.6779         0.4947      -1.1659
 Sum       29.0520        2.7278      26.3242        -0.0236      29.0756

 Contributions to Isotropic shielding for atom   26 (    32.5858 ppm):
                         Standard Origin              Atomic Origin
 NLMO      Total    Paramagnetic  Diamagnetic   Paramagnetic  Diamagnetic
   12      -0.0602        0.2254      -0.2856        -1.1147       1.0546
   23       1.5220       -0.9837       2.5057         0.6009       0.9211
   24      -0.1506        0.3465      -0.4972        -1.0334       0.8828
   26      26.3482        0.2621      26.0861         0.4085      25.9396
   27       2.0363        0.7269       1.3094         0.2229       1.8134
   28       1.8949        2.1564      -0.2615         0.0502       1.8447
 Sum       31.5905        2.7336      28.8568        -0.8657      32.4562

 Contributions to Isotropic shielding for atom   27 (    32.4741 ppm):
                         Standard Origin              Atomic Origin
 NLMO      Total    Paramagnetic  Diamagnetic   Paramagnetic  Diamagnetic
   23       1.5847       -0.9111       2.4958         0.5608       1.0239
   26       2.0432        0.7408       1.3024         0.2195       1.8236
   27      26.3565        0.2894      26.0671         0.4053      25.9512
   28       1.8995        2.1749      -0.2754         0.0570       1.8425
 Sum       31.8839        2.2940      29.5899         1.2426      30.6413

 Contributions to Isotropic shielding for atom   28 (    32.4137 ppm):
                         Standard Origin              Atomic Origin
 NLMO      Total    Paramagnetic  Diamagnetic   Paramagnetic  Diamagnetic
   23       1.2343        0.3912       0.8431         0.2070       1.0273
   24      -0.1758        0.7585      -0.9342        -1.1080       0.9323
   26       1.9477        1.8092       0.1385         0.0926       1.8551
   27       1.9638        1.8225       0.1414         0.1182       1.8456
   28      26.3642        0.0077      26.3565         0.4468      25.9173
 Sum       31.3343        4.7891      26.5452        -0.2434      31.5776

 Contributions to Isotropic shielding for atom   29 (    32.7504 ppm):
                         Standard Origin              Atomic Origin
 NLMO      Total    Paramagnetic  Diamagnetic   Paramagnetic  Diamagnetic
   12      -0.0960        0.0858      -0.1819        -1.0591       0.9631
   24       1.4756       -0.6292       2.1048         0.5390       0.9366
   29      26.3960        0.2584      26.1377         0.3775      26.0185
   30       2.1222        0.4599       1.6623         0.2976       1.8246
   31       1.9628        2.1301      -0.1673         0.1218       1.8410
 Sum       31.8606        2.3051      29.5555         0.2769      31.5837

 Contributions to Isotropic shielding for atom   30 (    32.3638 ppm):
                         Standard Origin              Atomic Origin
 NLMO      Total    Paramagnetic  Diamagnetic   Paramagnetic  Diamagnetic
    8      -0.1242        0.0837      -0.2079        -1.0900       0.9658
   10       0.0315       -0.0880       0.1196        -1.2510       1.2825
   24       1.5381       -0.7825       2.3206         0.5068       1.0313
   29       2.0957        0.4701       1.6256         0.2635       1.8322
   30      26.2598        0.2721      25.9878         0.3716      25.8882
   31       1.9426        1.9734      -0.0307         0.0734       1.8692
 Sum       31.7436        1.9287      29.8149        -1.1256      32.8692

 Contributions to Isotropic shielding for atom   31 (    32.5380 ppm):
                         Standard Origin              Atomic Origin
 NLMO      Total    Paramagnetic  Diamagnetic   Paramagnetic  Diamagnetic
   23      -0.1700        0.6289      -0.7989        -1.1506       0.9806
   24       1.1869        0.8434       0.3435         0.1489       1.0380
   29       1.9919        1.7346       0.2573         0.1353       1.8566
   30       2.0518        1.6422       0.4096         0.1798       1.8720
   31      26.3220       -0.0457      26.3678         0.3990      25.9231
 Sum       31.3827        4.8033      26.5794        -0.2876      31.6703
 
 1\1\GINC-COMPUTE-10-6\SP\RHF\STO-3G\C10H20O1\YTSAI.IQUIR\03-Aug-2021\0
 \\# rhf/STO-3G nmr pop=nbo\\comment\\0,1\C,0,0.139093896,0.709946394,-
 3.603378134\C,0,-0.248013081,0.38931224,-2.161411716\C,0,0.533352698,-
 1.132177732,-0.237769774\C,0,-0.250053798,1.228416896,0.231217329\C,0,
 -0.433105486,-0.263452223,0.587763947\C,0,0.240437764,1.472268114,-1.2
 00179936\C,0,0.279763174,-0.992859266,-1.746437355\O,0,0.402022223,-2.
 504025669,0.122446735\C,0,-0.385452262,-0.548461989,2.11786518\C,0,-1.
 416252046,0.289642071,2.882382345\C,0,0.999720203,-0.364284537,2.74463
 3123\H,0,-0.229855198,-0.063605121,-4.285080701\H,0,-0.291459366,1.666
 759963,-3.916989414\H,0,1.226318016,0.775166956,-3.718971371\H,0,-1.34
 5298089,0.364328882,-2.113959714\H,0,1.566745007,-0.834538855,-0.02221
 3747\H,0,0.448213571,1.72311503,0.914429074\H,0,-1.214141101,1.7360159
 96,0.364340338\H,0,-1.449726979,-0.547575318,0.274229093\H,0,1.3381355
 24,1.49766475,-1.205036186\H,0,-0.092724853,2.463782138,-1.529554288\H
 ,0,1.218718582,-1.223040089,-2.267372293\H,0,-0.428447209,-1.75984211,
 -2.087319016\H,0,1.038051042,-3.009189359,-0.412304853\H,0,-0.66735030
 9,-1.599435769,2.266975416\H,0,-1.164970316,1.355063691,2.869520815\H,
 0,-2.415381102,0.167054014,2.451399701\H,0,-1.466459703,-0.025642406,3
 .930342346\H,0,1.358485207,0.664989305,2.653729547\H,0,1.738839791,-1.
 026406863,2.284310991\H,0,0.970794201,-0.608989138,3.812392518\\Versio
 n=EM64L-G09RevC.01\State=1-A\HF=-459.613431\RMSD=6.169e-09\Dipole=0.28
 36707,0.1969341,-0.3843243\Quadrupole=1.1389821,-0.755864,-0.383118,-1
 .6531445,-0.4281194,1.7813073\PG=C01 [X(C10H20O1)]\\@


 "PERFECTION IS NOT AN ACCIDENT"
         --  EAGLE ELECTRIC MANUFACTURING CO.,INC. NY
 Job cpu time:  0 days  0 hours  0 minutes 27.1 seconds.
 File lengths (MBytes):  RWF=      5 Int=      0 D2E=      0 Chk=      1 Scr=      1
 Normal termination of Gaussian 09 at Tue Aug  3 16:36:34 2021.
