 Entering Gaussian System, Link 0=g09
 Input=/home/ytsai.iquir/menthol/03_menthol_M0079_MMFF_NMR_rhf_STO-3G_nbo.gjc
 Output=/home/ytsai.iquir/menthol/03_menthol_M0079_MMFF_NMR_rhf_STO-3G_nbo.log
 Initial command:
 /share/apps/Gaussian09/EM64T.SSE4.2-enabled/g09/l1.exe /tmp/Gau-8258.inp -scrdir=/tmp/
 Entering Link 1 = /share/apps/Gaussian09/EM64T.SSE4.2-enabled/g09/l1.exe PID=      8259.
  
 Copyright (c) 1988,1990,1992,1993,1995,1998,2003,2009,2011,
            Gaussian, Inc.  All Rights Reserved.
  
 This is part of the Gaussian(R) 09 program.  It is based on
 the Gaussian(R) 03 system (copyright 2003, Gaussian, Inc.),
 the Gaussian(R) 98 system (copyright 1998, Gaussian, Inc.),
 the Gaussian(R) 94 system (copyright 1995, Gaussian, Inc.),
 the Gaussian 92(TM) system (copyright 1992, Gaussian, Inc.),
 the Gaussian 90(TM) system (copyright 1990, Gaussian, Inc.),
 the Gaussian 88(TM) system (copyright 1988, Gaussian, Inc.),
 the Gaussian 86(TM) system (copyright 1986, Carnegie Mellon
 University), and the Gaussian 82(TM) system (copyright 1983,
 Carnegie Mellon University). Gaussian is a federally registered
 trademark of Gaussian, Inc.
  
 This software contains proprietary and confidential information,
 including trade secrets, belonging to Gaussian, Inc.
  
 This software is provided under written license and may be
 used, copied, transmitted, or stored only in accord with that
 written license.
  
 The following legend is applicable only to US Government
 contracts under FAR:
  
                    RESTRICTED RIGHTS LEGEND
  
 Use, reproduction and disclosure by the US Government is
 subject to restrictions as set forth in subparagraphs (a)
 and (c) of the Commercial Computer Software - Restricted
 Rights clause in FAR 52.227-19.
  
 Gaussian, Inc.
 340 Quinnipiac St., Bldg. 40, Wallingford CT 06492
  
  
 ---------------------------------------------------------------
 Warning -- This program may not be used in any manner that
 competes with the business of Gaussian, Inc. or will provide
 assistance to any competitor of Gaussian, Inc.  The licensee
 of this program is prohibited from giving any competitor of
 Gaussian, Inc. access to this program.  By using this program,
 the user acknowledges that Gaussian, Inc. is engaged in the
 business of creating and licensing software in the field of
 computational chemistry and represents and warrants to the
 licensee that it is not a competitor of Gaussian, Inc. and that
 it will not use this program in any manner prohibited above.
 ---------------------------------------------------------------
  

 Cite this work as:
 Gaussian 09, Revision C.01,
 M. J. Frisch, G. W. Trucks, H. B. Schlegel, G. E. Scuseria, 
 M. A. Robb, J. R. Cheeseman, G. Scalmani, V. Barone, B. Mennucci, 
 G. A. Petersson, H. Nakatsuji, M. Caricato, X. Li, H. P. Hratchian, 
 A. F. Izmaylov, J. Bloino, G. Zheng, J. L. Sonnenberg, M. Hada, 
 M. Ehara, K. Toyota, R. Fukuda, J. Hasegawa, M. Ishida, T. Nakajima, 
 Y. Honda, O. Kitao, H. Nakai, T. Vreven, J. A. Montgomery, Jr., 
 J. E. Peralta, F. Ogliaro, M. Bearpark, J. J. Heyd, E. Brothers, 
 K. N. Kudin, V. N. Staroverov, T. Keith, R. Kobayashi, J. Normand, 
 K. Raghavachari, A. Rendell, J. C. Burant, S. S. Iyengar, J. Tomasi, 
 M. Cossi, N. Rega, J. M. Millam, M. Klene, J. E. Knox, J. B. Cross, 
 V. Bakken, C. Adamo, J. Jaramillo, R. Gomperts, R. E. Stratmann, 
 O. Yazyev, A. J. Austin, R. Cammi, C. Pomelli, J. W. Ochterski, 
 R. L. Martin, K. Morokuma, V. G. Zakrzewski, G. A. Voth, 
 P. Salvador, J. J. Dannenberg, S. Dapprich, A. D. Daniels, 
 O. Farkas, J. B. Foresman, J. V. Ortiz, J. Cioslowski, 
 and D. J. Fox, Gaussian, Inc., Wallingford CT, 2010.
 
 ******************************************
 Gaussian 09:  EM64L-G09RevC.01 23-Sep-2011
                 3-Aug-2021 
 ******************************************
 %nprocshared=4
 Will use up to    4 processors via shared memory.
 ------------------------
 # rhf/STO-3G nmr pop=nbo
 ------------------------
 1/38=1/1;
 2/12=2,17=6,18=5,40=1/2;
 3/6=3,11=1,16=1,25=1,30=1,116=1/1,2,8,3;
 4//1;
 5/5=2,38=5/2;
 8/6=1,10=90,11=11/1;
 10/13=100,45=16/2;
 6/7=2,8=2,9=2,10=2,28=1,64=1/1,7;
 99/9=1/99;
 -------
 comment
 -------
 Charge =  0 Multiplicity = 1
 Symbolic Z-Matrix:
 6                     0.41288   0.969    -3.54203 
 6                    -0.11121   0.50417  -2.1847 
 6                     0.26528  -1.06113  -0.22995 
 6                    -0.12891   1.41292   0.21531 
 6                    -0.5244   -0.02126   0.60624 
 6                    -0.39067   1.70342  -1.26461 
 6                     0.85644  -0.48495  -1.52475 
 8                    -0.61609  -2.1219   -0.61537 
 6                    -0.42903  -0.22567   2.14977 
 6                     0.97282  -0.00908   2.73033 
 6                    -0.96143  -1.58998   2.59593 
 1                    -0.29221   1.66175  -4.01343 
 1                     1.37706   1.47911  -3.44291 
 1                     0.5492    0.11795  -4.21756 
 1                    -1.06218  -0.01598  -2.36326 
 1                     1.07841  -1.51886   0.34086 
 1                     0.93718   1.57612   0.41471 
 1                    -0.67526   2.1436    0.82364 
 1                    -1.59069  -0.13224   0.35696 
 1                     0.21196   2.57295  -1.55542 
 1                    -1.43752   2.00573  -1.39607 
 1                     1.8031    0.02361  -1.30172 
 1                     1.08449  -1.29996  -2.22299 
 1                    -0.94158  -2.55406   0.19024 
 1                    -1.0824    0.52836   2.61077 
 1                     1.70271  -0.71019   2.31573 
 1                     1.33135   1.00771   2.5466 
 1                     0.96195  -0.15053   3.81704 
 1                    -0.29893  -2.40497   2.28807 
 1                    -1.95899  -1.77538   2.18476 
 1                    -1.04335  -1.63027   3.68783 
 
                          Input orientation:                          
 ---------------------------------------------------------------------
 Center     Atomic      Atomic             Coordinates (Angstroms)
 Number     Number       Type             X           Y           Z
 ---------------------------------------------------------------------
      1          6           0        0.412878    0.968999   -3.542028
      2          6           0       -0.111214    0.504170   -2.184702
      3          6           0        0.265279   -1.061128   -0.229954
      4          6           0       -0.128907    1.412918    0.215312
      5          6           0       -0.524401   -0.021256    0.606243
      6          6           0       -0.390666    1.703425   -1.264615
      7          6           0        0.856445   -0.484953   -1.524755
      8          8           0       -0.616087   -2.121895   -0.615371
      9          6           0       -0.429031   -0.225667    2.149767
     10          6           0        0.972824   -0.009084    2.730332
     11          6           0       -0.961425   -1.589976    2.595932
     12          1           0       -0.292208    1.661748   -4.013425
     13          1           0        1.377056    1.479112   -3.442906
     14          1           0        0.549196    0.117955   -4.217564
     15          1           0       -1.062176   -0.015980   -2.363257
     16          1           0        1.078405   -1.518855    0.340858
     17          1           0        0.937181    1.576125    0.414711
     18          1           0       -0.675265    2.143605    0.823641
     19          1           0       -1.590692   -0.132236    0.356956
     20          1           0        0.211962    2.572953   -1.555424
     21          1           0       -1.437520    2.005725   -1.396071
     22          1           0        1.803101    0.023606   -1.301725
     23          1           0        1.084493   -1.299965   -2.222985
     24          1           0       -0.941577   -2.554059    0.190240
     25          1           0       -1.082405    0.528355    2.610766
     26          1           0        1.702710   -0.710187    2.315725
     27          1           0        1.331353    1.007710    2.546599
     28          1           0        0.961953   -0.150531    3.817045
     29          1           0       -0.298925   -2.404974    2.288066
     30          1           0       -1.958993   -1.775385    2.184756
     31          1           0       -1.043346   -1.630273    3.687833
 ---------------------------------------------------------------------
                    Distance matrix (angstroms):
                    1          2          3          4          5
     1  C    0.000000
     2  C    1.527439   0.000000
     3  C    3.887548   2.532379   0.000000
     4  C    3.822067   2.566360   2.544514   0.000000
     5  C    4.366606   2.869873   1.550534   1.538212   0.000000
     6  C    2.524217   1.537161   3.023829   1.530717   2.548042
     7  C    2.525889   1.533055   1.535566   2.756930   2.581260
     8  O    4.379237   3.100632   1.431984   3.663644   2.431756
     9  C    5.876442   4.406960   2.615939   2.552872   1.559919
    10  C    6.372808   5.059262   3.220359   3.092124   2.598767
    11  C    6.790553   5.287984   3.125718   3.921455   2.571135
    12  H    1.095109   2.171860   4.694625   4.239198   4.922169
    13  H    1.095299   2.179113   4.244046   3.956622   4.718289
    14  H    1.095083   2.172057   4.167958   4.667670   4.943795
    15  H    2.129664   1.098529   2.721295   3.092209   3.017806
    16  H    4.659308   3.447649   1.093854   3.173115   2.209575
    17  H    4.037236   3.000861   2.796810   1.096786   2.173599
    18  H    4.650034   3.472180   3.502142   1.096574   2.180973
    19  H    4.519855   3.008969   2.156834   2.131755   1.100652
    20  H    2.561178   2.186389   3.868625   2.144150   3.456147
    21  H    3.017268   2.153066   3.696612   2.158805   2.991939
    22  H    2.800972   2.162220   2.165696   2.822099   3.009921
    23  H    2.709084   2.164736   2.168023   3.844134   3.496880
    24  H    5.308136   3.960129   1.965173   4.049440   2.600420
    25  H    6.347197   4.892884   3.523124   2.725768   2.152105
    26  H    6.228692   5.001883   2.944461   3.503446   2.890844
    27  H    6.157635   4.971897   3.622962   2.780549   2.875339
    28  H    7.463965   6.131989   4.206275   4.075148   3.540510
    29  H    6.773503   5.338915   2.909411   4.347588   2.926001
    30  H    6.778898   5.263347   3.359818   4.170516   2.761653
    31  H    7.819699   6.317546   4.169591   4.706975   3.514888
                    6          7          8          9         10
     6  C    0.000000
     7  C    2.532184   0.000000
     8  O    3.886567   2.382207   0.000000
     9  C    3.921846   3.901511   3.358075   0.000000
    10  C    4.555370   4.283195   4.264076   1.532698   0.000000
    11  C    5.106474   4.637433   3.273326   1.530962   2.501720
    12  H    2.750889   3.481553   5.095844   6.447170   7.061887
    13  H    2.814269   2.794260   4.993478   6.119331   6.362940
    14  H    3.480943   2.776530   4.398932   6.451195   6.961958
    15  H    2.148090   2.145722   2.772900   4.562042   5.485063
    16  H    3.888290   2.144466   2.036992   2.686420   2.828452
    17  H    2.144648   2.831269   4.141143   2.850160   2.806468
    18  H    2.153037   3.843230   4.502083   2.726296   3.314474
    19  H    2.727491   3.107044   2.419508   2.138307   3.495668
    20  H    1.097183   3.125234   4.859112   4.687386   5.060982
    21  H    1.097529   3.388556   4.280362   4.309191   5.186175
    22  H    2.763292   1.097512   3.305560   4.117930   4.116784
    23  H    3.480649   1.097167   2.480315   4.750351   5.119980
    24  H    4.532800   3.233464   0.970422   3.086075   4.073561
    25  H    4.108269   4.678511   4.201100   1.099075   2.127699
    26  H    4.798602   3.939058   3.995130   2.192401   1.093699
    27  H    4.239660   4.362282   4.856440   2.185783   1.093696
    28  H    5.575840   5.353298   5.101255   2.172625   1.095933
    29  H    5.432209   4.422551   2.934395   2.187564   2.748315
    30  H    5.143921   4.832429   3.124769   2.177988   3.465981
    31  H    6.005520   5.664983   4.352219   2.171623   2.758623
                   11         12         13         14         15
    11  C    0.000000
    12  H    7.396294   0.000000
    13  H    7.166265   1.773497   0.000000
    14  H    7.184896   1.770009   1.771495   0.000000
    15  H    5.203956   2.476021   3.057907   2.460267   0.000000
    16  H    3.041599   5.563686   4.836721   4.872209   3.762042
    17  H    4.287963   4.596424   3.883826   4.871833   3.774828
    18  H    4.142768   4.876077   4.780899   5.569229   3.869086
    19  H    2.744812   4.899457   5.083593   5.056476   2.773518
    20  H    5.995046   2.669504   2.473160   3.636995   2.996431
    21  H    5.393683   2.877604   3.519758   3.933388   2.272361
    22  H    5.043608   3.798309   2.623865   3.175421   3.055852
    23  H    5.243267   3.724611   3.049109   2.505072   2.505290
    24  H    2.591757   5.988782   5.902735   5.365706   3.602323
    25  H    2.121835   6.766750   6.603017   7.032542   5.003760
    26  H    2.819602   7.047263   6.169353   6.685827   5.478995
    27  H    3.465146   6.789524   6.008201   6.867120   5.557302
    28  H    2.694903   8.134712   7.452176   8.049683   6.504716
    29  H    1.094491   7.499804   7.123136   7.029061   5.284377
    30  H    1.094798   7.280763   7.306952   7.132002   4.958246
    31  H    1.095711   8.408983   8.147028   8.251533   6.262746
                   16         17         18         19         20
    16  H    0.000000
    17  H    3.099080   0.000000
    18  H    4.089261   1.757624   0.000000
    19  H    3.007832   3.051553   2.497049   0.000000
    20  H    4.592331   2.324014   2.575163   3.771579   0.000000
    21  H    4.665776   3.017067   2.350992   2.769015   1.751551
    22  H    2.366949   2.471089   3.892798   3.780653   3.015835
    23  H    2.573178   3.905257   4.923094   3.895677   4.025723
    24  H    2.274788   4.542966   4.747648   2.512841   5.537531
    25  H    3.743348   3.162152   2.443074   2.402998   4.817978
    26  H    2.223465   3.070360   4.003150   3.875216   5.290287
    27  H    3.363451   2.241298   2.878429   3.825226   4.530962
    28  H    3.737612   3.815473   4.111448   4.299831   6.069866
    29  H    2.544379   4.570182   4.793302   3.250105   6.309769
    30  H    3.562521   4.770063   4.342703   2.485244   6.132702
    31  H    3.964402   4.991674   4.751972   3.693026   6.836275
                   21         22         23         24         25
    21  H    0.000000
    22  H    3.799911   0.000000
    23  H    4.239331   1.765491   0.000000
    24  H    4.853243   4.050133   3.391367   0.000000
    25  H    4.285262   4.887586   5.603869   3.921741   0.000000
    26  H    5.569080   3.692489   4.618433   3.861321   3.062335
    27  H    4.920095   4.000075   5.304266   4.837854   2.461732
    28  H    6.130537   5.190343   6.149648   4.749114   2.468885
    29  H    5.858629   4.816961   4.846078   2.199114   3.053260
    30  H    5.233646   5.435556   5.377454   2.370562   2.501422
    31  H    6.262742   5.977731   6.290833   3.618963   2.412732
                   26         27         28         29         30
    26  H    0.000000
    27  H    1.772676   0.000000
    28  H    1.765190   1.758411   0.000000
    29  H    2.622901   3.790918   3.001684   0.000000
    30  H    3.815739   4.324687   3.719737   1.778449   0.000000
    31  H    3.204693   3.728346   2.495507   1.764561   1.765986
                   31
    31  H    0.000000
 Stoichiometry    C10H20O
 Framework group  C1[X(C10H20O)]
 Deg. of freedom    87
 Full point group                 C1      NOp   1
 Largest Abelian subgroup         C1      NOp   1
 Largest concise Abelian subgroup C1      NOp   1
                         Standard orientation:                         
 ---------------------------------------------------------------------
 Center     Atomic      Atomic             Coordinates (Angstroms)
 Number     Number       Type             X           Y           Z
 ---------------------------------------------------------------------
      1          6           0       -3.654479    0.016822    0.168635
      2          6           0       -2.181947    0.096333   -0.229356
      3          6           0        0.118109    0.913619    0.444983
      4          6           0       -0.178294   -1.506374   -0.283256
      5          6           0        0.660751   -0.228320   -0.452609
      6          6           0       -1.649879   -1.285493   -0.642062
      7          6           0       -1.334383    0.701363    0.895736
      8          8           0        0.146617    2.142829   -0.289052
      9          6           0        2.180191   -0.529399   -0.268218
     10          6           0        2.550659   -1.089298    1.109617
     11          6           0        3.061663    0.682678   -0.580820
     12          1           0       -4.254568   -0.400641   -0.646767
     13          1           0       -3.794302   -0.614732    1.052530
     14          1           0       -4.048433    1.012207    0.399321
     15          1           0       -2.115559    0.760484   -1.101861
     16          1           0        0.732340    1.065235    1.337311
     17          1           0       -0.125924   -1.855194    0.755264
     18          1           0        0.222011   -2.316321   -0.904719
     19          1           0        0.545181    0.086906   -1.500804
     20          1           0       -2.239373   -2.088803   -0.182715
     21          1           0       -1.780704   -1.398709   -1.725868
     22          1           0       -1.354679    0.034786    1.767399
     23          1           0       -1.768337    1.658461    1.211049
     24          1           0        1.069248    2.339006   -0.517052
     25          1           0        2.442324   -1.302006   -1.004649
     26          1           0        2.310223   -0.390547    1.915914
     27          1           0        2.038081   -2.034303    1.310616
     28          1           0        3.626057   -1.293872    1.161939
     29          1           0        2.962660    1.463786    0.179428
     30          1           0        2.809395    1.109962   -1.556717
     31          1           0        4.117088    0.390073   -0.613104
 ---------------------------------------------------------------------
 Rotational constants (GHZ):      1.8876936      0.6958373      0.5908601
 Standard basis: STO-3G (5D, 7F)
 There are    75 symmetry adapted basis functions of A   symmetry.
 Integral buffers will be    131072 words long.
 Raffenetti 1 integral format.
 Two-electron integral symmetry is turned on.
    75 basis functions,   225 primitive gaussians,    75 cartesian basis functions
    44 alpha electrons       44 beta electrons
       nuclear repulsion energy       692.9782959645 Hartrees.
 NAtoms=   31 NActive=   31 NUniq=   31 SFac= 1.00D+00 NAtFMM=   60 NAOKFM=F Big=F
 One-electron integrals computed using PRISM.
 NBasis=    75 RedAO= T  NBF=    75
 NBsUse=    75 1.00D-06 NBFU=    75
 Harris functional with IExCor=  205 diagonalized for initial guess.
 ExpMin= 1.69D-01 ExpMax= 1.31D+02 ExpMxC= 1.31D+02 IAcc=1 IRadAn=         1 AccDes= 0.00D+00
 HarFok:  IExCor=  205 AccDes= 0.00D+00 IRadAn=         1 IDoV= 1
 ScaDFX=  1.000000  1.000000  1.000000  1.000000
 FoFCou: FMM=F IPFlag=           0 FMFlag=      100000 FMFlg1=           0
         NFxFlg=           0 DoJE=T BraDBF=F KetDBF=T FulRan=T
         Omega=  0.000000  0.000000  1.000000  0.000000  0.000000 ICntrl=     500 IOpCl=  0
         NMat0=    1 NMatS0=    1 NMatT0=    0 NMatD0=    1 NMtDS0=    0 NMtDT0=    0
         I1Cent=           4 NGrid=           0.
 Petite list used in FoFCou.
 Initial guess orbital symmetries:
       Occupied  (A) (A) (A) (A) (A) (A) (A) (A) (A) (A) (A) (A)
                 (A) (A) (A) (A) (A) (A) (A) (A) (A) (A) (A) (A)
                 (A) (A) (A) (A) (A) (A) (A) (A) (A) (A) (A) (A)
                 (A) (A) (A) (A) (A) (A) (A) (A)
       Virtual   (A) (A) (A) (A) (A) (A) (A) (A) (A) (A) (A) (A)
                 (A) (A) (A) (A) (A) (A) (A) (A) (A) (A) (A) (A)
                 (A) (A) (A) (A) (A) (A) (A)
 The electronic state of the initial guess is 1-A.
 Requested convergence on RMS density matrix=1.00D-08 within 128 cycles.
 Requested convergence on MAX density matrix=1.00D-06.
 Requested convergence on             energy=1.00D-06.
 No special actions if energy rises.
 Keep R1 ints in memory in canonical form, NReq=4898789.
 SCF Done:  E(RHF) =  -459.612750170     A.U. after   10 cycles
             Convg  =    0.8510D-08             -V/T =  2.0089
 Range of M.O.s used for correlation:     1    75
 NBasis=    75 NAE=    44 NBE=    44 NFC=     0 NFV=     0
 NROrb=     75 NOA=    44 NOB=    44 NVA=    31 NVB=    31
          Differentiating once with respect to magnetic field using GIAOs.
          Electric field/nuclear overlap derivatives assumed to be zero.
          Keep R3 ints in memory in canonical form, NReq=4863575.
 FoFCou: FMM=F IPFlag=           0 FMFlag=           0 FMFlg1=           0
         NFxFlg=           0 DoJE=F BraDBF=F KetDBF=T FulRan=T
         Omega=  0.000000  0.000000  1.000000  0.000000  0.000000 ICntrl=    6100 IOpCl=  0
         NMat0=    1 NMatS0=    1 NMatT0=    0 NMatD0=    1 NMtDS0=    0 NMtDT0=    0
         I1Cent=           7 NGrid=          31.
 Symmetry not used in FoFCou.
          There are     3 degrees of freedom in the 1st order CPHF.  IDoFFX=0.
      3 vectors produced by pass  0 Test12= 4.55D-14 3.33D-08 XBig12= 7.63D+00 4.56D-01.
 AX will form     3 AO Fock derivatives at one time.
      3 vectors produced by pass  1 Test12= 4.55D-14 3.33D-08 XBig12= 1.13D-02 1.63D-02.
      3 vectors produced by pass  2 Test12= 4.55D-14 3.33D-08 XBig12= 9.76D-05 2.17D-03.
      3 vectors produced by pass  3 Test12= 4.55D-14 3.33D-08 XBig12= 1.64D-06 3.31D-04.
      3 vectors produced by pass  4 Test12= 4.55D-14 3.33D-08 XBig12= 1.61D-08 2.10D-05.
      3 vectors produced by pass  5 Test12= 4.55D-14 3.33D-08 XBig12= 2.16D-10 2.60D-06.
      3 vectors produced by pass  6 Test12= 4.55D-14 3.33D-08 XBig12= 2.88D-12 2.99D-07.
 Inverted reduced A of dimension    21 with in-core refinement.
 Calculating GIAO nuclear magnetic shielding tensors.
 SCF GIAO Magnetic shielding tensor (ppm):
      1  C    Isotropic =   220.9021   Anisotropy =    27.7375
   XX=   238.2217   YX=    -2.6186   ZX=    -4.7651
   XY=     0.3262   YY=   214.7880   ZY=     0.7748
   XZ=    -6.7645   YZ=    -0.8145   ZZ=   209.6967
   Eigenvalues:   208.5665   214.7461   239.3938
      2  C    Isotropic =   217.1157   Anisotropy =     8.4534
   XX=   222.6753   YX=    -1.1076   ZX=     1.3864
   XY=    -0.4085   YY=   215.1767   ZY=     5.6726
   XZ=    -0.4182   YZ=     4.5924   ZZ=   213.4951
   Eigenvalues:   209.0806   219.5152   222.7513
      3  C    Isotropic =   189.1442   Anisotropy =    37.0467
   XX=   181.4422   YX=     1.5708   ZX=    -7.0065
   XY=     0.8243   YY=   206.5081   ZY=   -15.0658
   XZ=    -7.4976   YZ=   -15.2938   ZZ=   179.4823
   Eigenvalues:   169.4430   184.1477   213.8420
      4  C    Isotropic =   217.8440   Anisotropy =    16.1203
   XX=   226.9047   YX=     2.6666   ZX=     0.5134
   XY=     4.3043   YY=   221.3531   ZY=     0.5810
   XZ=    -1.2131   YZ=     2.6128   ZZ=   205.2741
   Eigenvalues:   205.0945   219.8466   228.5909
      5  C    Isotropic =   208.4283   Anisotropy =     9.1279
   XX=   211.3022   YX=    -4.5325   ZX=     0.8046
   XY=    -3.1707   YY=   209.8651   ZY=     1.1287
   XZ=    -0.4309   YZ=    -1.7775   ZZ=   204.1175
   Eigenvalues:   204.0991   206.6722   214.5136
      6  C    Isotropic =   216.4883   Anisotropy =    18.8314
   XX=   224.9861   YX=    -3.3822   ZX=    -1.2464
   XY=    -6.0248   YY=   221.1531   ZY=     6.2517
   XZ=    -2.1994   YZ=     5.3553   ZZ=   203.3258
   Eigenvalues:   201.5986   218.8238   229.0426
      7  C    Isotropic =   215.3623   Anisotropy =    18.7202
   XX=   226.5373   YX=     3.6564   ZX=    -1.6003
   XY=     4.7000   YY=   211.0165   ZY=     3.4665
   XZ=     3.6020   YZ=     6.1230   ZZ=   208.5332
   Eigenvalues:   204.6686   213.5759   227.8425
      8  O    Isotropic =   351.3841   Anisotropy =    65.0424
   XX=   384.2066   YX=    13.5504   ZX=   -31.9126
   XY=    -5.8867   YY=   339.5831   ZY=    10.5101
   XZ=   -20.0118   YZ=    -1.2209   ZZ=   330.3625
   Eigenvalues:   318.3296   341.0769   394.7457
      9  C    Isotropic =   212.9134   Anisotropy =    16.5885
   XX=   223.9284   YX=     0.0013   ZX=    -1.6067
   XY=    -1.2912   YY=   208.7232   ZY=    -3.1669
   XZ=     2.4863   YZ=    -1.5870   ZZ=   206.0885
   Eigenvalues:   204.6881   210.0797   223.9723
     10  C    Isotropic =   224.6588   Anisotropy =    20.6896
   XX=   221.5884   YX=    -2.2963   ZX=     4.9142
   XY=    -1.3059   YY=   220.2655   ZY=    -7.9926
   XZ=     2.9965   YZ=   -10.8802   ZZ=   232.1226
   Eigenvalues:   215.0300   220.4946   238.4519
     11  C    Isotropic =   221.8179   Anisotropy =    24.2506
   XX=   224.3390   YX=    10.1534   ZX=    -3.8827
   XY=    10.0281   YY=   226.1096   ZY=    -9.9489
   XZ=    -1.0193   YZ=    -6.3742   ZZ=   215.0049
   Eigenvalues:   209.9919   217.4767   237.9850
     12  H    Isotropic =    32.3222   Anisotropy =    13.8370
   XX=    37.7768   YX=     2.3043   ZX=     5.3623
   XY=     2.3802   YY=    27.9496   ZY=     3.0815
   XZ=     5.0721   YZ=     2.6796   ZZ=    31.2401
   Eigenvalues:    26.2251    29.1946    41.5468
     13  H    Isotropic =    32.6752   Anisotropy =    11.6500
   XX=    33.7197   YX=     2.3821   ZX=    -4.0960
   XY=     2.3577   YY=    30.3364   ZY=    -4.4916
   XZ=    -4.3145   YZ=    -4.4784   ZZ=    33.9695
   Eigenvalues:    27.2776    30.3062    40.4418
     14  H    Isotropic =    32.3835   Anisotropy =    13.8466
   XX=    35.4077   YX=    -5.9719   ZX=    -1.6654
   XY=    -5.6023   YY=    35.1260   ZY=     2.4137
   XZ=    -1.6749   YZ=     2.4472   ZZ=    26.6169
   Eigenvalues:    25.9687    29.5672    41.6146
     15  H    Isotropic =    32.1710   Anisotropy =    10.4808
   XX=    31.2749   YX=    -0.3366   ZX=     1.3967
   XY=    -0.1884   YY=    31.0937   ZY=    -6.1452
   XZ=     1.5003   YZ=    -6.1270   ZZ=    34.1444
   Eigenvalues:    26.2011    31.1537    39.1582
     16  H    Isotropic =    31.9756   Anisotropy =     8.2042
   XX=    33.8170   YX=    -0.1601   ZX=     3.2891
   XY=    -0.3294   YY=    28.3023   ZY=     1.8306
   XZ=     3.3528   YZ=     3.2888   ZZ=    33.8075
   Eigenvalues:    26.9334    31.5483    37.4451
     17  H    Isotropic =    32.7210   Anisotropy =     9.5838
   XX=    32.3755   YX=     0.2818   ZX=     1.7618
   XY=     0.1119   YY=    31.9047   ZY=    -5.6633
   XZ=     1.5280   YZ=    -6.2215   ZZ=    33.8830
   Eigenvalues:    26.6096    32.4433    39.1102
     18  H    Isotropic =    32.5746   Anisotropy =    13.0426
   XX=    32.3796   YX=    -2.5232   ZX=    -1.1720
   XY=    -2.4195   YY=    37.0066   ZY=     6.4298
   XZ=    -1.0677   YZ=     6.4740   ZZ=    28.3376
   Eigenvalues:    24.8951    31.5591    41.2697
     19  H    Isotropic =    32.4927   Anisotropy =     8.7258
   XX=    31.8050   YX=     0.4992   ZX=     0.3060
   XY=     1.0643   YY=    28.0754   ZY=    -2.6639
   XZ=     0.4164   YZ=    -2.7218   ZZ=    37.5976
   Eigenvalues:    27.2100    31.9581    38.3099
     20  H    Isotropic =    32.5591   Anisotropy =    12.9995
   XX=    34.8209   YX=     4.6894   ZX=    -1.7112
   XY=     4.8141   YY=    36.9414   ZY=    -1.7844
   XZ=    -1.9700   YZ=    -2.1820   ZZ=    25.9152
   Eigenvalues:    25.4328    31.0191    41.2255
     21  H    Isotropic =    32.1789   Anisotropy =    13.4608
   XX=    29.9076   YX=    -0.2326   ZX=     3.2159
   XY=     0.0512   YY=    28.2648   ZY=     4.8417
   XZ=     3.4312   YZ=     4.8612   ZZ=    38.3643
   Eigenvalues:    25.8047    29.5791    41.1528
     22  H    Isotropic =    32.6681   Anisotropy =    10.3069
   XX=    30.9451   YX=     0.4857   ZX=    -1.2724
   XY=     0.6257   YY=    28.8848   ZY=    -3.7123
   XZ=    -1.5720   YZ=    -3.0301   ZZ=    38.1746
   Eigenvalues:    27.7876    30.6774    39.5394
     23  H    Isotropic =    32.0046   Anisotropy =    13.1112
   XX=    32.5219   YX=    -3.3427   ZX=    -2.6627
   XY=    -3.0743   YY=    35.4543   ZY=     5.9258
   XZ=    -2.7880   YZ=     5.7580   ZZ=    28.0377
   Eigenvalues:    24.7186    30.5498    40.7454
     24  H    Isotropic =    34.6456   Anisotropy =    16.4377
   XX=    41.7754   YX=     4.5095   ZX=    -4.9893
   XY=     2.4639   YY=    36.0587   ZY=    -4.8485
   XZ=    -4.6250   YZ=    -4.9189   ZZ=    26.1027
   Eigenvalues:    23.5134    34.8194    45.6040
     25  H    Isotropic =    32.4809   Anisotropy =    12.3741
   XX=    31.6022   YX=    -2.5127   ZX=    -3.2200
   XY=    -2.2795   YY=    33.3774   ZY=     6.2882
   XZ=    -2.9065   YZ=     6.0572   ZZ=    32.4632
   Eigenvalues:    26.6312    30.0813    40.7303
     26  H    Isotropic =    32.8725   Anisotropy =     9.7382
   XX=    30.0972   YX=    -1.7868   ZX=     0.9111
   XY=    -2.0018   YY=    30.3576   ZY=     3.2034
   XZ=     1.0267   YZ=     3.3530   ZZ=    38.1627
   Eigenvalues:    27.4655    31.7873    39.3646
     27  H    Isotropic =    32.6071   Anisotropy =    11.3542
   XX=    31.4887   YX=     2.5110   ZX=     1.3966
   XY=     2.3360   YY=    36.8971   ZY=    -5.4045
   XZ=     1.1503   YZ=    -5.7898   ZZ=    29.4355
   Eigenvalues:    25.5501    32.0946    40.1766
     28  H    Isotropic =    32.6565   Anisotropy =    14.5419
   XX=    39.9556   YX=    -3.9004   ZX=     3.2500
   XY=    -3.7948   YY=    28.8578   ZY=    -2.6366
   XZ=     3.3677   YZ=    -2.6179   ZZ=    29.1561
   Eigenvalues:    26.3443    29.2742    42.3511
     29  H    Isotropic =    33.0376   Anisotropy =     9.4241
   XX=    32.0753   YX=     2.3619   ZX=    -0.0239
   XY=     2.5375   YY=    36.4351   ZY=     4.1979
   XZ=    -0.1311   YZ=     4.3236   ZZ=    30.6024
   Eigenvalues:    27.9583    31.8341    39.3204
     30  H    Isotropic =    32.7886   Anisotropy =    12.0552
   XX=    30.9713   YX=     1.3003   ZX=    -1.4054
   XY=     1.2906   YY=    30.8509   ZY=    -6.4716
   XZ=    -1.0848   YZ=    -5.9191   ZZ=    36.5437
   Eigenvalues:    26.8346    30.7058    40.8255
     31  H    Isotropic =    32.4425   Anisotropy =    14.6154
   XX=    41.8798   YX=    -0.0636   ZX=    -2.2723
   XY=     0.2111   YY=    28.2184   ZY=    -1.1043
   XZ=    -1.9801   YZ=    -1.1666   ZZ=    27.2291
   Eigenvalues:    26.2843    28.8571    42.1860
 End of Minotr Frequency-dependent properties file   721 does not exist.
 End of Minotr Frequency-dependent properties file   722 does not exist.

 **********************************************************************

            Population analysis using the SCF density.

 **********************************************************************

 Orbital symmetries:
       Occupied  (A) (A) (A) (A) (A) (A) (A) (A) (A) (A) (A) (A)
                 (A) (A) (A) (A) (A) (A) (A) (A) (A) (A) (A) (A)
                 (A) (A) (A) (A) (A) (A) (A) (A) (A) (A) (A) (A)
                 (A) (A) (A) (A) (A) (A) (A) (A)
       Virtual   (A) (A) (A) (A) (A) (A) (A) (A) (A) (A) (A) (A)
                 (A) (A) (A) (A) (A) (A) (A) (A) (A) (A) (A) (A)
                 (A) (A) (A) (A) (A) (A) (A)
 The electronic state is 1-A.
 Alpha  occ. eigenvalues --  -20.23033 -11.08234 -11.05184 -11.04283 -11.03966
 Alpha  occ. eigenvalues --  -11.03925 -11.03574 -11.03479 -11.03417 -11.03159
 Alpha  occ. eigenvalues --  -11.02744  -1.27300  -1.07981  -1.03957  -0.96901
 Alpha  occ. eigenvalues --   -0.94365  -0.89648  -0.87729  -0.79574  -0.78566
 Alpha  occ. eigenvalues --   -0.73567  -0.67694  -0.64509  -0.61127  -0.58273
 Alpha  occ. eigenvalues --   -0.57764  -0.55669  -0.54517  -0.53282  -0.52906
 Alpha  occ. eigenvalues --   -0.51415  -0.50002  -0.48698  -0.47867  -0.47519
 Alpha  occ. eigenvalues --   -0.46012  -0.43903  -0.43325  -0.42536  -0.40858
 Alpha  occ. eigenvalues --   -0.39429  -0.38398  -0.36017  -0.32876
 Alpha virt. eigenvalues --    0.53031   0.56391   0.57041   0.58612   0.61261
 Alpha virt. eigenvalues --    0.61678   0.62475   0.64080   0.65317   0.66180
 Alpha virt. eigenvalues --    0.66835   0.69437   0.70133   0.70762   0.72390
 Alpha virt. eigenvalues --    0.72664   0.73121   0.74484   0.74773   0.75994
 Alpha virt. eigenvalues --    0.76668   0.78480   0.78719   0.79270   0.80556
 Alpha virt. eigenvalues --    0.81122   0.81980   0.82415   0.84522   0.86280
 Alpha virt. eigenvalues --    0.87896
          Condensed to atoms (all electrons):
              1          2          3          4          5          6
     1  C    4.738938   0.365944   0.000729   0.000684   0.000016  -0.024168
     2  C    0.365944   4.745911  -0.021723  -0.020389  -0.005825   0.361230
     3  C    0.000729  -0.021723   4.745843  -0.021030   0.354641  -0.002852
     4  C    0.000684  -0.020389  -0.021030   4.757377   0.360863   0.361943
     5  C    0.000016  -0.005825   0.354641   0.360863   4.794745  -0.020913
     6  C   -0.024168   0.361230  -0.002852   0.361943  -0.020913   4.760383
     7  C   -0.023766   0.362964   0.359906  -0.008498  -0.020669  -0.023442
     8  O   -0.000001  -0.000307   0.266084   0.000279  -0.019473   0.000016
     9  C    0.000000   0.000014  -0.018874  -0.021396   0.357990   0.000641
    10  C    0.000000   0.000000  -0.001769  -0.002393  -0.019885   0.000010
    11  C    0.000000   0.000000  -0.001243   0.000644  -0.021714  -0.000004
    12  H    0.382528  -0.020247  -0.000017   0.000011   0.000000  -0.002159
    13  H    0.382000  -0.020880   0.000005   0.000021   0.000000  -0.002290
    14  H    0.382348  -0.020209   0.000014  -0.000017   0.000000   0.001296
    15  H   -0.024588   0.383539  -0.002626   0.000446   0.000030  -0.024081
    16  H   -0.000016   0.001232   0.375656   0.000574  -0.024214   0.000017
    17  H    0.000003  -0.000232  -0.002172   0.382073  -0.022431  -0.023579
    18  H   -0.000013   0.001158   0.001125   0.382977  -0.020530  -0.021721
    19  H    0.000001  -0.000050  -0.023738  -0.024042   0.378965  -0.002525
    20  H   -0.005744  -0.021229   0.000005  -0.022897   0.001231   0.382432
    21  H    0.000432  -0.022777   0.000020  -0.022565  -0.000472   0.382384
    22  H   -0.001874  -0.022640  -0.020833  -0.000555  -0.000061  -0.002282
    23  H   -0.002563  -0.020976  -0.020699   0.000089   0.001043   0.001223
    24  H    0.000001  -0.000003  -0.040137  -0.000003  -0.001977  -0.000003
    25  H    0.000000  -0.000001   0.001059  -0.002613  -0.023253   0.000014
    26  H    0.000000   0.000000  -0.000603   0.000013  -0.001593  -0.000002
    27  H    0.000000   0.000000   0.000050  -0.000944  -0.001392   0.000004
    28  H    0.000000   0.000000   0.000014   0.000030   0.001091   0.000000
    29  H    0.000000   0.000000  -0.000092  -0.000002  -0.001144   0.000000
    30  H    0.000000   0.000000   0.000044   0.000017  -0.002432   0.000000
    31  H    0.000000   0.000000   0.000002  -0.000014   0.001144   0.000000
              7          8          9         10         11         12
     1  C   -0.023766  -0.000001   0.000000   0.000000   0.000000   0.382528
     2  C    0.362964  -0.000307   0.000014   0.000000   0.000000  -0.020247
     3  C    0.359906   0.266084  -0.018874  -0.001769  -0.001243  -0.000017
     4  C   -0.008498   0.000279  -0.021396  -0.002393   0.000644   0.000011
     5  C   -0.020669  -0.019473   0.357990  -0.019885  -0.021714   0.000000
     6  C   -0.023442   0.000016   0.000641   0.000010  -0.000004  -0.002159
     7  C    4.761904  -0.020015   0.000533   0.000012   0.000001   0.001287
     8  O   -0.020015   7.855266   0.000208   0.000003  -0.000395   0.000000
     9  C    0.000533   0.000208   4.744243   0.364308   0.363884   0.000000
    10  C    0.000012   0.000003   0.364308   4.744007  -0.026442   0.000000
    11  C    0.000001  -0.000395   0.363884  -0.026442   4.749433   0.000000
    12  H    0.001287   0.000000   0.000000   0.000000   0.000000   0.630661
    13  H   -0.002194   0.000000   0.000000   0.000000   0.000000  -0.021743
    14  H   -0.002205   0.000000   0.000000   0.000000   0.000000  -0.021598
    15  H   -0.024390   0.000365   0.000000   0.000000   0.000000  -0.002327
    16  H   -0.025085  -0.018974  -0.003817  -0.000708  -0.000190   0.000000
    17  H   -0.000368   0.000000  -0.001548  -0.000900  -0.000004   0.000000
    18  H    0.000076  -0.000005  -0.002510  -0.000020   0.000017  -0.000001
    19  H    0.000320  -0.002340  -0.024093   0.001137  -0.002494   0.000000
    20  H    0.000294   0.000000  -0.000014   0.000000   0.000000  -0.000119
    21  H    0.001258   0.000000  -0.000004   0.000000   0.000000   0.000189
    22  H    0.380643   0.000615  -0.000004   0.000007   0.000000  -0.000001
    23  H    0.382031  -0.001456  -0.000010   0.000000   0.000000   0.000026
    24  H    0.002675   0.258317  -0.000013   0.000012  -0.001181   0.000000
    25  H   -0.000013  -0.000008   0.381737  -0.024792  -0.025004   0.000000
    26  H   -0.000018   0.000003  -0.020325   0.382030  -0.001858   0.000000
    27  H   -0.000003   0.000000  -0.019609   0.382978   0.001332   0.000000
    28  H    0.000000   0.000000  -0.019845   0.382320  -0.002881   0.000000
    29  H   -0.000002  -0.000490  -0.020673  -0.002582   0.381633   0.000000
    30  H   -0.000002  -0.000187  -0.020353   0.001329   0.382074   0.000000
    31  H    0.000000   0.000006  -0.019654  -0.002033   0.382655   0.000000
             13         14         15         16         17         18
     1  C    0.382000   0.382348  -0.024588  -0.000016   0.000003  -0.000013
     2  C   -0.020880  -0.020209   0.383539   0.001232  -0.000232   0.001158
     3  C    0.000005   0.000014  -0.002626   0.375656  -0.002172   0.001125
     4  C    0.000021  -0.000017   0.000446   0.000574   0.382073   0.382977
     5  C    0.000000   0.000000   0.000030  -0.024214  -0.022431  -0.020530
     6  C   -0.002290   0.001296  -0.024081   0.000017  -0.023579  -0.021721
     7  C   -0.002194  -0.002205  -0.024390  -0.025085  -0.000368   0.000076
     8  O    0.000000   0.000000   0.000365  -0.018974   0.000000  -0.000005
     9  C    0.000000   0.000000   0.000000  -0.003817  -0.001548  -0.002510
    10  C    0.000000   0.000000   0.000000  -0.000708  -0.000900  -0.000020
    11  C    0.000000   0.000000   0.000000  -0.000190  -0.000004   0.000017
    12  H   -0.021743  -0.021598  -0.002327   0.000000   0.000000  -0.000001
    13  H    0.633280  -0.021860   0.001919   0.000000   0.000007  -0.000001
    14  H   -0.021860   0.630019  -0.002401  -0.000001   0.000000   0.000000
    15  H    0.001919  -0.002401   0.644253   0.000024  -0.000023  -0.000027
    16  H    0.000000  -0.000001   0.000024   0.660699   0.000186  -0.000031
    17  H    0.000007   0.000000  -0.000023   0.000186   0.648402  -0.023874
    18  H   -0.000001   0.000000  -0.000027  -0.000031  -0.023874   0.640382
    19  H    0.000000   0.000000  -0.000231   0.001671   0.001967  -0.002081
    20  H    0.000316   0.000081   0.001809   0.000002  -0.005278  -0.000206
    21  H    0.000004  -0.000032  -0.006559   0.000001   0.001996  -0.004958
    22  H    0.000391   0.000012   0.001949  -0.003902  -0.000654   0.000009
    23  H   -0.000009   0.000194  -0.001943  -0.000613   0.000002   0.000000
    24  H    0.000000   0.000000  -0.000050  -0.003704   0.000000   0.000000
    25  H    0.000000   0.000000   0.000000   0.000026   0.000048   0.000179
    26  H    0.000000   0.000000   0.000000  -0.000370   0.000038   0.000008
    27  H    0.000000   0.000000   0.000000   0.000031  -0.000933   0.000007
    28  H    0.000000   0.000000   0.000000  -0.000016   0.000006  -0.000008
    29  H    0.000000   0.000000   0.000000  -0.000135   0.000001  -0.000001
    30  H    0.000000   0.000000   0.000000   0.000031   0.000000   0.000002
    31  H    0.000000   0.000000   0.000000  -0.000011   0.000000  -0.000001
             19         20         21         22         23         24
     1  C    0.000001  -0.005744   0.000432  -0.001874  -0.002563   0.000001
     2  C   -0.000050  -0.021229  -0.022777  -0.022640  -0.020976  -0.000003
     3  C   -0.023738   0.000005   0.000020  -0.020833  -0.020699  -0.040137
     4  C   -0.024042  -0.022897  -0.022565  -0.000555   0.000089  -0.000003
     5  C    0.378965   0.001231  -0.000472  -0.000061   0.001043  -0.001977
     6  C   -0.002525   0.382432   0.382384  -0.002282   0.001223  -0.000003
     7  C    0.000320   0.000294   0.001258   0.380643   0.382031   0.002675
     8  O   -0.002340   0.000000   0.000000   0.000615  -0.001456   0.258317
     9  C   -0.024093  -0.000014  -0.000004  -0.000004  -0.000010  -0.000013
    10  C    0.001137   0.000000   0.000000   0.000007   0.000000   0.000012
    11  C   -0.002494   0.000000   0.000000   0.000000   0.000000  -0.001181
    12  H    0.000000  -0.000119   0.000189  -0.000001   0.000026   0.000000
    13  H    0.000000   0.000316   0.000004   0.000391  -0.000009   0.000000
    14  H    0.000000   0.000081  -0.000032   0.000012   0.000194   0.000000
    15  H   -0.000231   0.001809  -0.006559   0.001949  -0.001943  -0.000050
    16  H    0.001671   0.000002   0.000001  -0.003902  -0.000613  -0.003704
    17  H    0.001967  -0.005278   0.001996  -0.000654   0.000002   0.000000
    18  H   -0.002081  -0.000206  -0.004958   0.000009   0.000000   0.000000
    19  H    0.647513   0.000014   0.000354  -0.000001  -0.000039   0.000070
    20  H    0.000014   0.644756  -0.024227   0.000225  -0.000024   0.000000
    21  H    0.000354  -0.024227   0.647305   0.000002  -0.000033   0.000000
    22  H   -0.000001   0.000225   0.000002   0.642332  -0.022476  -0.000083
    23  H   -0.000039  -0.000024  -0.000033  -0.022476   0.623331   0.000113
    24  H    0.000070   0.000000   0.000000  -0.000083   0.000113   0.609471
    25  H   -0.002678  -0.000001   0.000001   0.000000   0.000000  -0.000007
    26  H    0.000000   0.000000   0.000000   0.000007   0.000001  -0.000002
    27  H    0.000008   0.000002   0.000000  -0.000001   0.000000   0.000000
    28  H   -0.000029   0.000000   0.000000   0.000000   0.000000   0.000000
    29  H    0.000003   0.000000   0.000000   0.000000   0.000000  -0.000576
    30  H    0.000273   0.000000   0.000000   0.000000   0.000000  -0.000437
    31  H    0.000025   0.000000   0.000000   0.000000   0.000000   0.000013
             25         26         27         28         29         30
     1  C    0.000000   0.000000   0.000000   0.000000   0.000000   0.000000
     2  C   -0.000001   0.000000   0.000000   0.000000   0.000000   0.000000
     3  C    0.001059  -0.000603   0.000050   0.000014  -0.000092   0.000044
     4  C   -0.002613   0.000013  -0.000944   0.000030  -0.000002   0.000017
     5  C   -0.023253  -0.001593  -0.001392   0.001091  -0.001144  -0.002432
     6  C    0.000014  -0.000002   0.000004   0.000000   0.000000   0.000000
     7  C   -0.000013  -0.000018  -0.000003   0.000000  -0.000002  -0.000002
     8  O   -0.000008   0.000003   0.000000   0.000000  -0.000490  -0.000187
     9  C    0.381737  -0.020325  -0.019609  -0.019845  -0.020673  -0.020353
    10  C   -0.024792   0.382030   0.382978   0.382320  -0.002582   0.001329
    11  C   -0.025004  -0.001858   0.001332  -0.002881   0.381633   0.382074
    12  H    0.000000   0.000000   0.000000   0.000000   0.000000   0.000000
    13  H    0.000000   0.000000   0.000000   0.000000   0.000000   0.000000
    14  H    0.000000   0.000000   0.000000   0.000000   0.000000   0.000000
    15  H    0.000000   0.000000   0.000000   0.000000   0.000000   0.000000
    16  H    0.000026  -0.000370   0.000031  -0.000016  -0.000135   0.000031
    17  H    0.000048   0.000038  -0.000933   0.000006   0.000001   0.000000
    18  H    0.000179   0.000008   0.000007  -0.000008  -0.000001   0.000002
    19  H   -0.002678   0.000000   0.000008  -0.000029   0.000003   0.000273
    20  H   -0.000001   0.000000   0.000002   0.000000   0.000000   0.000000
    21  H    0.000001   0.000000   0.000000   0.000000   0.000000   0.000000
    22  H    0.000000   0.000007  -0.000001   0.000000   0.000000   0.000000
    23  H    0.000000   0.000001   0.000000   0.000000   0.000000   0.000000
    24  H   -0.000007  -0.000002   0.000000   0.000000  -0.000576  -0.000437
    25  H    0.652228   0.001910  -0.002590  -0.002224   0.001964  -0.001792
    26  H    0.001910   0.631158  -0.021698  -0.021927   0.000366   0.000004
    27  H   -0.002590  -0.021698   0.628392  -0.022108   0.000016  -0.000037
    28  H   -0.002224  -0.021927  -0.022108   0.630328  -0.000032   0.000039
    29  H    0.001964   0.000366   0.000016  -0.000032   0.636503  -0.021987
    30  H   -0.001792   0.000004  -0.000037   0.000039  -0.021987   0.631899
    31  H   -0.003290  -0.000007   0.000023   0.000085  -0.021926  -0.021465
             31
     1  C    0.000000
     2  C    0.000000
     3  C    0.000002
     4  C   -0.000014
     5  C    0.001144
     6  C    0.000000
     7  C    0.000000
     8  O    0.000006
     9  C   -0.019654
    10  C   -0.002033
    11  C    0.382655
    12  H    0.000000
    13  H    0.000000
    14  H    0.000000
    15  H    0.000000
    16  H   -0.000011
    17  H    0.000000
    18  H   -0.000001
    19  H    0.000025
    20  H    0.000000
    21  H    0.000000
    22  H    0.000000
    23  H    0.000000
    24  H    0.000013
    25  H   -0.003290
    26  H   -0.000007
    27  H    0.000023
    28  H    0.000085
    29  H   -0.021926
    30  H   -0.021465
    31  H    0.626030
 Mulliken atomic charges:
              1
     1  C   -0.170893
     2  C   -0.024501
     3  C    0.073212
     4  C   -0.100682
     5  C   -0.043779
     6  C   -0.101570
     7  C   -0.103235
     8  O   -0.317509
     9  C   -0.020818
    10  C   -0.176626
    11  C   -0.178264
    12  H    0.053509
    13  H    0.051036
    14  H    0.054359
    15  H    0.054911
    16  H    0.041638
    17  H    0.047267
    18  H    0.050048
    19  H    0.052021
    20  H    0.048573
    21  H    0.047682
    22  H    0.049173
    23  H    0.062788
    24  H    0.177506
    25  H    0.049100
    26  H    0.052866
    27  H    0.056476
    28  H    0.055157
    29  H    0.049155
    30  H    0.052979
    31  H    0.058419
 Sum of Mulliken atomic charges =   0.00000
 Mulliken charges with hydrogens summed into heavy atoms:
              1
     1  C   -0.011989
     2  C    0.030409
     3  C    0.114850
     4  C   -0.003367
     5  C    0.008242
     6  C   -0.005314
     7  C    0.008727
     8  O   -0.140003
     9  C    0.028282
    10  C   -0.012127
    11  C   -0.017711
 Sum of Mulliken charges with hydrogens summed into heavy atoms =   0.00000
 Electronic spatial extent (au):  <R**2>=           2148.9040
 Charge=              0.0000 electrons
 Dipole moment (field-independent basis, Debye):
    X=              1.1173    Y=             -0.9162    Z=              0.1889  Tot=              1.4572
 Quadrupole moment (field-independent basis, Debye-Ang):
   XX=            -66.4340   YY=            -70.3687   ZZ=            -66.9847
   XY=              2.1919   XZ=             -0.7770   YZ=              0.4677
 Traceless Quadrupole moment (field-independent basis, Debye-Ang):
   XX=              1.4951   YY=             -2.4396   ZZ=              0.9444
   XY=              2.1919   XZ=             -0.7770   YZ=              0.4677
 Octapole moment (field-independent basis, Debye-Ang**2):
  XXX=              7.6697  YYY=              5.4696  ZZZ=             -3.1620  XYY=              5.3669
  XXY=              6.7168  XXZ=             -1.9986  XZZ=             -0.2647  YZZ=              4.3262
  YYZ=              0.2894  XYZ=             -0.4092
 Hexadecapole moment (field-independent basis, Debye-Ang**3):
 XXXX=          -1920.3545 YYYY=           -571.9897 ZZZZ=           -273.6684 XXXY=             -4.1837
 XXXZ=              2.1807 YYYX=             13.8684 YYYZ=             -3.3324 ZZZX=             -1.2393
 ZZZY=             -3.6758 XXYY=           -403.0738 XXZZ=           -365.5553 YYZZ=           -136.3884
 XXYZ=              0.3353 YYXZ=             -6.6217 ZZXY=              4.4452
 N-N= 6.929782959645D+02 E-N=-2.457956337512D+03  KE= 4.555579462300D+02
 ******************************Gaussian NBO Version 3.1******************************
             N A T U R A L   A T O M I C   O R B I T A L   A N D
          N A T U R A L   B O N D   O R B I T A L   A N A L Y S I S
 ******************************Gaussian NBO Version 3.1******************************
       /RESON  / : Allow strongly delocalized NBO set
       /NLMO   / : Form Natural Localized Molecular Orbitals
       /NMR /    : Analyze NMR Sheilding Tensor 

 Analyzing the SCF density

 Job title: comment                                                         

 Storage needed:     19864 in NPA,     23691 in NBO,     45933 in NLMO (  33549317 available)


 NATURAL POPULATIONS:  Natural atomic orbital occupancies 
                                                          
   NAO  Atom  No  lang   Type(AO)    Occupancy      Energy
 ----------------------------------------------------------
     1    C    1  S      Cor( 1S)     1.99998     -10.96092
     2    C    1  S      Val( 2S)     1.07979      -0.17724
     3    C    1  px     Val( 2p)     0.99401       0.09183
     4    C    1  py     Val( 2p)     1.02833       0.08827
     5    C    1  pz     Val( 2p)     1.02360       0.08977

     6    C    2  S      Cor( 1S)     1.99997     -10.98234
     7    C    2  S      Val( 2S)     1.07994      -0.18583
     8    C    2  px     Val( 2p)     0.95269       0.11706
     9    C    2  py     Val( 2p)     0.97035       0.11312
    10    C    2  pz     Val( 2p)     0.98475       0.10937

    11    C    3  S      Cor( 1S)     1.99988     -11.03188
    12    C    3  S      Val( 2S)     1.09142      -0.21654
    13    C    3  px     Val( 2p)     0.98184       0.08313
    14    C    3  py     Val( 2p)     0.85258       0.11829
    15    C    3  pz     Val( 2p)     0.93161       0.10692

    16    C    4  S      Cor( 1S)     1.99996     -10.97416
    17    C    4  S      Val( 2S)     1.08446      -0.18879
    18    C    4  px     Val( 2p)     0.97646       0.09812
    19    C    4  py     Val( 2p)     0.98597       0.09786
    20    C    4  pz     Val( 2p)     1.01608       0.09261

    21    C    5  S      Cor( 1S)     1.99995     -10.98843
    22    C    5  S      Val( 2S)     1.10537      -0.21441
    23    C    5  px     Val( 2p)     0.95574       0.10416
    24    C    5  py     Val( 2p)     0.96859       0.10121
    25    C    5  pz     Val( 2p)     0.99316       0.09530

    26    C    6  S      Cor( 1S)     1.99996     -10.97006
    27    C    6  S      Val( 2S)     1.08550      -0.18525
    28    C    6  px     Val( 2p)     0.97700       0.10272
    29    C    6  py     Val( 2p)     0.98637       0.10304
    30    C    6  pz     Val( 2p)     1.01526       0.09465

    31    C    7  S      Cor( 1S)     1.99996     -10.97344
    32    C    7  S      Val( 2S)     1.09098      -0.19293
    33    C    7  px     Val( 2p)     0.97543       0.09515
    34    C    7  py     Val( 2p)     1.01929       0.09248
    35    C    7  pz     Val( 2p)     0.99308       0.09686

    36    O    8  S      Cor( 1S)     1.99999     -20.13431
    37    O    8  S      Val( 2S)     1.75007      -0.99386
    38    O    8  px     Val( 2p)     1.37699      -0.13211
    39    O    8  py     Val( 2p)     1.44714      -0.14955
    40    O    8  pz     Val( 2p)     1.76502      -0.27830

    41    C    9  S      Cor( 1S)     1.99996     -10.99598
    42    C    9  S      Val( 2S)     1.08587      -0.20227
    43    C    9  px     Val( 2p)     0.95361       0.10604
    44    C    9  py     Val( 2p)     0.97012       0.10124
    45    C    9  pz     Val( 2p)     0.97046       0.10249

    46    C   10  S      Cor( 1S)     1.99997     -10.96786
    47    C   10  S      Val( 2S)     1.07992      -0.18518
    48    C   10  px     Val( 2p)     1.02924       0.07766
    49    C   10  py     Val( 2p)     1.02495       0.08100
    50    C   10  pz     Val( 2p)     0.99884       0.08547

    51    C   11  S      Cor( 1S)     1.99997     -10.97284
    52    C   11  S      Val( 2S)     1.08171      -0.19183
    53    C   11  px     Val( 2p)     1.02255       0.07216
    54    C   11  py     Val( 2p)     1.00763       0.07685
    55    C   11  pz     Val( 2p)     1.02186       0.07778

    56    H   12  S      Val( 1S)     0.96371       0.07781

    57    H   13  S      Val( 1S)     0.96614       0.07633

    58    H   14  S      Val( 1S)     0.96306       0.07975

    59    H   15  S      Val( 1S)     0.96995       0.07898

    60    H   16  S      Val( 1S)     0.99453       0.05168

    61    H   17  S      Val( 1S)     0.97373       0.07044

    62    H   18  S      Val( 1S)     0.97071       0.07000

    63    H   19  S      Val( 1S)     0.97311       0.06506

    64    H   20  S      Val( 1S)     0.97215       0.07322

    65    H   21  S      Val( 1S)     0.97306       0.07350

    66    H   22  S      Val( 1S)     0.97118       0.06813

    67    H   23  S      Val( 1S)     0.95850       0.08106

    68    H   24  S      Val( 1S)     0.81092       0.08354

    69    H   25  S      Val( 1S)     0.97622       0.06228

    70    H   26  S      Val( 1S)     0.96447       0.07211

    71    H   27  S      Val( 1S)     0.96109       0.07514

    72    H   28  S      Val( 1S)     0.96184       0.07148

    73    H   29  S      Val( 1S)     0.96761       0.06226

    74    H   30  S      Val( 1S)     0.96412       0.06510

    75    H   31  S      Val( 1S)     0.95873       0.06964


 Summary of Natural Population Analysis:                  
                                                          
                                       Natural Population 
                Natural  -----------------------------------------------
    Atom  No    Charge         Core      Valence    Rydberg      Total
 -----------------------------------------------------------------------
      C    1   -0.12571      1.99998     4.12573    0.00000     6.12571
      C    2    0.01230      1.99997     3.98773    0.00000     5.98770
      C    3    0.14267      1.99988     3.85744    0.00000     5.85733
      C    4   -0.06293      1.99996     4.06297    0.00000     6.06293
      C    5   -0.02281      1.99995     4.02286    0.00000     6.02281
      C    6   -0.06409      1.99996     4.06413    0.00000     6.06409
      C    7   -0.07875      1.99996     4.07879    0.00000     6.07875
      O    8   -0.33921      1.99999     6.33922    0.00000     8.33921
      C    9    0.01999      1.99996     3.98005    0.00000     5.98001
      C   10   -0.13292      1.99997     4.13295    0.00000     6.13292
      C   11   -0.13372      1.99997     4.13376    0.00000     6.13372
      H   12    0.03629      0.00000     0.96371    0.00000     0.96371
      H   13    0.03386      0.00000     0.96614    0.00000     0.96614
      H   14    0.03694      0.00000     0.96306    0.00000     0.96306
      H   15    0.03005      0.00000     0.96995    0.00000     0.96995
      H   16    0.00547      0.00000     0.99453    0.00000     0.99453
      H   17    0.02627      0.00000     0.97373    0.00000     0.97373
      H   18    0.02929      0.00000     0.97071    0.00000     0.97071
      H   19    0.02689      0.00000     0.97311    0.00000     0.97311
      H   20    0.02785      0.00000     0.97215    0.00000     0.97215
      H   21    0.02694      0.00000     0.97306    0.00000     0.97306
      H   22    0.02882      0.00000     0.97118    0.00000     0.97118
      H   23    0.04150      0.00000     0.95850    0.00000     0.95850
      H   24    0.18908      0.00000     0.81092    0.00000     0.81092
      H   25    0.02378      0.00000     0.97622    0.00000     0.97622
      H   26    0.03553      0.00000     0.96447    0.00000     0.96447
      H   27    0.03891      0.00000     0.96109    0.00000     0.96109
      H   28    0.03816      0.00000     0.96184    0.00000     0.96184
      H   29    0.03239      0.00000     0.96761    0.00000     0.96761
      H   30    0.03588      0.00000     0.96412    0.00000     0.96412
      H   31    0.04127      0.00000     0.95873    0.00000     0.95873
 =======================================================================
   * Total *    0.00000     21.99955    66.00045    0.00000    88.00000

                                 Natural Population      
 --------------------------------------------------------
   Core                      21.99955 ( 99.9979% of  22)
   Valence                   66.00045 (100.0007% of  66)
   Natural Minimal Basis     88.00000 (100.0000% of  88)
   Natural Rydberg Basis      0.00000 (  0.0000% of  88)
 --------------------------------------------------------

    Atom  No          Natural Electron Configuration
 ----------------------------------------------------------------------------
      C    1      [core]2S( 1.08)2p( 3.05)
      C    2      [core]2S( 1.08)2p( 2.91)
      C    3      [core]2S( 1.09)2p( 2.77)
      C    4      [core]2S( 1.08)2p( 2.98)
      C    5      [core]2S( 1.11)2p( 2.92)
      C    6      [core]2S( 1.09)2p( 2.98)
      C    7      [core]2S( 1.09)2p( 2.99)
      O    8      [core]2S( 1.75)2p( 4.59)
      C    9      [core]2S( 1.09)2p( 2.89)
      C   10      [core]2S( 1.08)2p( 3.05)
      C   11      [core]2S( 1.08)2p( 3.05)
      H   12            1S( 0.96)
      H   13            1S( 0.97)
      H   14            1S( 0.96)
      H   15            1S( 0.97)
      H   16            1S( 0.99)
      H   17            1S( 0.97)
      H   18            1S( 0.97)
      H   19            1S( 0.97)
      H   20            1S( 0.97)
      H   21            1S( 0.97)
      H   22            1S( 0.97)
      H   23            1S( 0.96)
      H   24            1S( 0.81)
      H   25            1S( 0.98)
      H   26            1S( 0.96)
      H   27            1S( 0.96)
      H   28            1S( 0.96)
      H   29            1S( 0.97)
      H   30            1S( 0.96)
      H   31            1S( 0.96)


 NATURAL BOND ORBITAL ANALYSIS:

                       Occupancies       Lewis Structure    Low   High
           Occ.    -------------------  -----------------   occ   occ
  Cycle   Thresh.   Lewis   Non-Lewis     CR  BD  3C  LP    (L)   (NL)   Dev
 =============================================================================
   1(1)    1.90    87.64273   0.35727     11  31   0   2     0      0    0.02
 -----------------------------------------------------------------------------

 Structure accepted: No low occupancy Lewis orbitals

 --------------------------------------------------------
   Core                     21.99954 ( 99.998% of  22)
   Valence Lewis            65.64319 ( 99.459% of  66)
  ==================       ============================
   Total Lewis              87.64273 ( 99.594% of  88)
  -----------------------------------------------------
   Valence non-Lewis         0.35727 (  0.406% of  88)
   Rydberg non-Lewis         0.00000 (  0.000% of  88)
  ==================       ============================
   Total non-Lewis           0.35727 (  0.406% of  88)
 --------------------------------------------------------


       (Occupancy)   Bond orbital/ Coefficients/ Hybrids
 ---------------------------------------------------------------------------------
     1. (1.98947) BD ( 1) C   1 - C   2  
                ( 50.90%)   0.7134* C   1 s( 25.76%)p 2.88( 74.24%)
                                            0.0001  0.5075  0.8319  0.0423 -0.2204
                ( 49.10%)   0.7007* C   2 s( 25.23%)p 2.96( 74.77%)
                                            0.0000  0.5023 -0.8273 -0.0607  0.2439
     2. (1.99494) BD ( 1) C   1 - H  12  
                ( 51.82%)   0.7199* C   1 s( 24.77%)p 3.04( 75.23%)
                                            0.0000  0.4977 -0.4602 -0.3340 -0.6550
                ( 48.18%)   0.6941* H  12 s(100.00%)
                                            1.0000
     3. (1.99531) BD ( 1) C   1 - H  13  
                ( 51.73%)   0.7193* C   1 s( 24.77%)p 3.04( 75.23%)
                                            0.0000  0.4977 -0.0926 -0.5037  0.7000
                ( 48.27%)   0.6947* H  13 s(100.00%)
                                            1.0000
     4. (1.99501) BD ( 1) C   1 - H  14  
                ( 51.86%)   0.7202* C   1 s( 24.70%)p 3.05( 75.30%)
                                            0.0000  0.4970 -0.2960  0.7956  0.1799
                ( 48.14%)   0.6938* H  14 s(100.00%)
                                            1.0000
     5. (1.98535) BD ( 1) C   2 - C   6  
                ( 49.44%)   0.7031* C   2 s( 25.05%)p 2.99( 74.95%)
                                            0.0000  0.5005  0.2999 -0.7848 -0.2090
                ( 50.56%)   0.7111* C   6 s( 25.67%)p 2.90( 74.33%)
                                            0.0001  0.5066 -0.2812  0.7745  0.2536
     6. (1.98594) BD ( 1) C   2 - C   7  
                ( 49.42%)   0.7030* C   2 s( 25.07%)p 2.99( 74.93%)
                                            0.0000  0.5007  0.4712  0.3267  0.6485
                ( 50.58%)   0.7112* C   7 s( 25.05%)p 2.99( 74.95%)
                                            0.0001  0.5005 -0.4709 -0.3410 -0.6415
     7. (1.98578) BD ( 1) C   2 - H  15  
                ( 51.44%)   0.7172* C   2 s( 24.65%)p 3.06( 75.35%)
                                            0.0000  0.4965  0.0596  0.5232 -0.6901
                ( 48.56%)   0.6969* H  15 s(100.00%)
                                            1.0000
     8. (1.98295) BD ( 1) C   3 - C   5  
                ( 49.92%)   0.7065* C   3 s( 26.20%)p 2.82( 73.80%)
                                            0.0001  0.5119  0.2926 -0.6446 -0.4866
                ( 50.08%)   0.7077* C   5 s( 25.43%)p 2.93( 74.57%)
                                            0.0000  0.5043 -0.2835  0.6203  0.5296
     9. (1.98596) BD ( 1) C   3 - C   7  
                ( 50.08%)   0.7077* C   3 s( 26.36%)p 2.79( 73.64%)
                                            0.0000  0.5134 -0.8182 -0.1318  0.2227
                ( 49.92%)   0.7065* C   7 s( 24.92%)p 3.01( 75.08%)
                                            0.0001  0.4992  0.8164  0.1106 -0.2685
    10. (1.98891) BD ( 1) C   3 - O   8  
                ( 41.05%)   0.6407* C   3 s( 21.70%)p 3.61( 78.30%)
                                            0.0000  0.4658  0.0433  0.7466 -0.4730
                ( 58.95%)   0.7678* O   8 s( 16.17%)p 5.18( 83.83%)
                                            0.0000  0.4021  0.0489 -0.7895  0.4610
    11. (1.98849) BD ( 1) C   3 - H  16  
                ( 50.56%)   0.7111* C   3 s( 25.74%)p 2.89( 74.26%)
                                            0.0000  0.5073  0.4930  0.0983  0.6999
                ( 49.44%)   0.7031* H  16 s(100.00%)
                                            1.0000
    12. (1.98459) BD ( 1) C   4 - C   5  
                ( 50.28%)   0.7091* C   4 s( 25.36%)p 2.94( 74.64%)
                                            0.0001  0.5035  0.4652  0.7213 -0.0988
                ( 49.72%)   0.7051* C   5 s( 25.08%)p 2.99( 74.92%)
                                            0.0000  0.5008 -0.4588 -0.7233  0.1247
    13. (1.98915) BD ( 1) C   4 - C   6  
                ( 50.12%)   0.7080* C   4 s( 25.17%)p 2.97( 74.83%)
                                            0.0000  0.5017 -0.8249  0.1528 -0.2111
                ( 49.88%)   0.7062* C   6 s( 25.28%)p 2.96( 74.72%)
                                            0.0000  0.5028  0.8338 -0.0941  0.2077
    14. (1.99054) BD ( 1) C   4 - H  17  
                ( 51.34%)   0.7165* C   4 s( 24.42%)p 3.09( 75.58%)
                                            0.0000  0.4942  0.0406 -0.2576  0.8293
                ( 48.66%)   0.6976* H  17 s(100.00%)
                                            1.0000
    15. (1.98999) BD ( 1) C   4 - H  18  
                ( 51.44%)   0.7172* C   4 s( 25.05%)p 2.99( 74.95%)
                                            0.0000  0.5005  0.3187 -0.6245 -0.5079
                ( 48.56%)   0.6968* H  18 s(100.00%)
                                            1.0000
    16. (1.97950) BD ( 1) C   5 - C   9  
                ( 49.82%)   0.7059* C   5 s( 25.11%)p 2.98( 74.89%)
                                            0.0001  0.5011  0.8368 -0.1572  0.1548
                ( 50.18%)   0.7084* C   9 s( 25.46%)p 2.93( 74.54%)
                                            0.0001  0.5046 -0.8400  0.1905 -0.0596
    17. (1.98269) BD ( 1) C   5 - H  19  
                ( 51.22%)   0.7157* C   5 s( 24.38%)p 3.10( 75.62%)
                                            0.0000  0.4937 -0.0944  0.2595 -0.8246
                ( 48.78%)   0.6984* H  19 s(100.00%)
                                            1.0000
    18. (1.99103) BD ( 1) C   6 - H  20  
                ( 51.40%)   0.7169* C   6 s( 24.72%)p 3.04( 75.28%)
                                            0.0000  0.4972 -0.4663 -0.6211  0.3867
                ( 48.60%)   0.6971* H  20 s(100.00%)
                                            1.0000
    19. (1.99198) BD ( 1) C   6 - H  21  
                ( 51.34%)   0.7166* C   6 s( 24.33%)p 3.11( 75.67%)
                                            0.0000  0.4933 -0.0910 -0.0735 -0.8620
                ( 48.66%)   0.6975* H  21 s(100.00%)
                                            1.0000
    20. (1.98922) BD ( 1) C   7 - H  22  
                ( 51.40%)   0.7169* C   7 s( 24.73%)p 3.04( 75.27%)
                                            0.0000  0.4973 -0.0074 -0.5388  0.6799
                ( 48.60%)   0.6972* H  22 s(100.00%)
                                            1.0000
    21. (1.98815) BD ( 1) C   7 - H  23  
                ( 52.01%)   0.7212* C   7 s( 25.30%)p 2.95( 74.70%)
                                            0.0000  0.5030 -0.3343  0.7623  0.2326
                ( 47.99%)   0.6927* H  23 s(100.00%)
                                            1.0000
    22. (1.98960) BD ( 1) O   8 - H  24  
                ( 59.54%)   0.7716* O   8 s( 17.01%)p 4.88( 82.99%)
                                            0.0000  0.4124  0.8770  0.1504 -0.1952
                ( 40.46%)   0.6361* H  24 s(100.00%)
                                            1.0000
    23. (1.99014) BD ( 1) C   9 - C  10  
                ( 49.06%)   0.7004* C   9 s( 25.27%)p 2.96( 74.73%)
                                            0.0000  0.5027  0.1788 -0.2951  0.7926
                ( 50.94%)   0.7137* C  10 s( 25.86%)p 2.87( 74.14%)
                                            0.0001  0.5085 -0.2211  0.3190 -0.7686
    24. (1.98968) BD ( 1) C   9 - C  11  
                ( 48.75%)   0.6982* C   9 s( 25.04%)p 2.99( 74.96%)
                                            0.0000  0.5004  0.4724  0.7076 -0.1605
                ( 51.25%)   0.7159* C  11 s( 25.80%)p 2.88( 74.20%)
                                            0.0001  0.5079 -0.5047 -0.6745  0.1800
    25. (1.98388) BD ( 1) C   9 - H  25  
                ( 51.07%)   0.7146* C   9 s( 24.23%)p 3.13( 75.77%)
                                            0.0000  0.4922  0.1982 -0.6131 -0.5852
                ( 48.93%)   0.6995* H  25 s(100.00%)
                                            1.0000
    26. (1.99468) BD ( 1) C  10 - H  26  
                ( 51.83%)   0.7199* C  10 s( 24.88%)p 3.02( 75.12%)
                                            0.0000  0.4988 -0.2023  0.5671  0.6235
                ( 48.17%)   0.6941* H  26 s(100.00%)
                                            1.0000
    27. (1.99468) BD ( 1) C  10 - H  27  
                ( 51.97%)   0.7209* C  10 s( 24.76%)p 3.04( 75.24%)
                                            0.0000  0.4976 -0.4223 -0.7443  0.1418
                ( 48.03%)   0.6930* H  27 s(100.00%)
                                            1.0000
    28. (1.99416) BD ( 1) C  10 - H  28  
                ( 51.89%)   0.7204* C  10 s( 24.50%)p 3.08( 75.50%)
                                            0.0000  0.4950  0.8555 -0.1509  0.0188
                ( 48.11%)   0.6936* H  28 s(100.00%)
                                            1.0000
    29. (1.99378) BD ( 1) C  11 - H  29  
                ( 51.64%)   0.7186* C  11 s( 24.80%)p 3.03( 75.20%)
                                            0.0000  0.4980 -0.0972  0.6101  0.6085
                ( 48.36%)   0.6954* H  29 s(100.00%)
                                            1.0000
    30. (1.99428) BD ( 1) C  11 - H  30  
                ( 51.80%)   0.7197* C  11 s( 24.75%)p 3.04( 75.25%)
                                            0.0000  0.4975 -0.2159  0.3301 -0.7726
                ( 48.20%)   0.6943* H  30 s(100.00%)
                                            1.0000
    31. (1.99406) BD ( 1) C  11 - H  31  
                ( 52.05%)   0.7215* C  11 s( 24.65%)p 3.06( 75.35%)
                                            0.0000  0.4964  0.8302 -0.2528 -0.0203
                ( 47.95%)   0.6925* H  31 s(100.00%)
                                            1.0000
    32. (1.99997) CR ( 1) C   1           s(100.00%)
                                            1.0000  0.0000 -0.0001  0.0000  0.0000
    33. (1.99997) CR ( 1) C   2           s(100.00%)
                                            1.0000  0.0000  0.0000  0.0000  0.0000
    34. (1.99988) CR ( 1) C   3           s(100.00%)
                                            1.0000  0.0000  0.0000  0.0001  0.0000
    35. (1.99996) CR ( 1) C   4           s(100.00%)
                                            1.0000  0.0000  0.0000 -0.0001  0.0000
    36. (1.99995) CR ( 1) C   5           s(100.00%)
                                            1.0000  0.0000  0.0000  0.0000  0.0000
    37. (1.99996) CR ( 1) C   6           s(100.00%)
                                            1.0000  0.0000  0.0000 -0.0001  0.0000
    38. (1.99996) CR ( 1) C   7           s(100.00%)
                                            1.0000 -0.0001  0.0000  0.0000  0.0001
    39. (1.99999) CR ( 1) O   8           s(100.00%)
                                            1.0000  0.0000  0.0000  0.0000  0.0000
    40. (1.99996) CR ( 1) C   9           s(100.00%)
                                            1.0000  0.0000  0.0001  0.0000  0.0000
    41. (1.99997) CR ( 1) C  10           s(100.00%)
                                            1.0000  0.0000  0.0000  0.0000  0.0001
    42. (1.99997) CR ( 1) C  11           s(100.00%)
                                            1.0000 -0.0001  0.0001  0.0000  0.0000
    43. (1.99260) LP ( 1) O   8           s( 66.78%)p 0.50( 33.22%)
                                            0.0000  0.8172 -0.4691  0.2990 -0.1509
    44. (1.97669) LP ( 2) O   8           s(  0.05%)p99.99( 99.95%)
                                            0.0000  0.0216  0.0913  0.5144  0.8524
    45. (0.00945) BD*( 1) C   1 - C   2  
                ( 49.10%)   0.7007* C   1 s( 25.76%)p 2.88( 74.24%)
                                           -0.0001 -0.5075 -0.8319 -0.0423  0.2204
                ( 50.90%)  -0.7134* C   2 s( 25.23%)p 2.96( 74.77%)
                                            0.0000 -0.5023  0.8273  0.0607 -0.2439
    46. (0.00498) BD*( 1) C   1 - H  12  
                ( 48.18%)   0.6941* C   1 s( 24.77%)p 3.04( 75.23%)
                                            0.0000 -0.4977  0.4602  0.3340  0.6550
                ( 51.82%)  -0.7199* H  12 s(100.00%)
                                           -1.0000
    47. (0.00595) BD*( 1) C   1 - H  13  
                ( 48.27%)   0.6947* C   1 s( 24.77%)p 3.04( 75.23%)
                                            0.0000 -0.4977  0.0926  0.5037 -0.7000
                ( 51.73%)  -0.7193* H  13 s(100.00%)
                                           -1.0000
    48. (0.00523) BD*( 1) C   1 - H  14  
                ( 48.14%)   0.6938* C   1 s( 24.70%)p 3.05( 75.30%)
                                            0.0000 -0.4970  0.2960 -0.7956 -0.1799
                ( 51.86%)  -0.7202* H  14 s(100.00%)
                                           -1.0000
    49. (0.01669) BD*( 1) C   2 - C   6  
                ( 50.56%)   0.7111* C   2 s( 25.05%)p 2.99( 74.95%)
                                            0.0000  0.5005  0.2999 -0.7848 -0.2090
                ( 49.44%)  -0.7031* C   6 s( 25.67%)p 2.90( 74.33%)
                                            0.0001  0.5066 -0.2812  0.7745  0.2536
    50. (0.01547) BD*( 1) C   2 - C   7  
                ( 50.58%)   0.7112* C   2 s( 25.07%)p 2.99( 74.93%)
                                            0.0000  0.5007  0.4712  0.3267  0.6485
                ( 49.42%)  -0.7030* C   7 s( 25.05%)p 2.99( 74.95%)
                                            0.0001  0.5005 -0.4709 -0.3410 -0.6415
    51. (0.01091) BD*( 1) C   2 - H  15  
                ( 48.56%)   0.6969* C   2 s( 24.65%)p 3.06( 75.35%)
                                            0.0000 -0.4965 -0.0596 -0.5232  0.6901
                ( 51.44%)  -0.7172* H  15 s(100.00%)
                                           -1.0000
    52. (0.03363) BD*( 1) C   3 - C   5  
                ( 50.08%)   0.7077* C   3 s( 26.20%)p 2.82( 73.80%)
                                            0.0001  0.5119  0.2926 -0.6446 -0.4866
                ( 49.92%)  -0.7065* C   5 s( 25.43%)p 2.93( 74.57%)
                                            0.0000  0.5043 -0.2835  0.6203  0.5296
    53. (0.02119) BD*( 1) C   3 - C   7  
                ( 49.92%)   0.7065* C   3 s( 26.36%)p 2.79( 73.64%)
                                            0.0000 -0.5134  0.8182  0.1318 -0.2227
                ( 50.08%)  -0.7077* C   7 s( 24.92%)p 3.01( 75.08%)
                                           -0.0001 -0.4992 -0.8164 -0.1106  0.2685
    54. (0.02118) BD*( 1) C   3 - O   8  
                ( 58.95%)   0.7678* C   3 s( 21.70%)p 3.61( 78.30%)
                                            0.0000  0.4658  0.0433  0.7466 -0.4730
                ( 41.05%)  -0.6407* O   8 s( 16.17%)p 5.18( 83.83%)
                                            0.0000  0.4021  0.0489 -0.7895  0.4610
    55. (0.02261) BD*( 1) C   3 - H  16  
                ( 49.44%)   0.7031* C   3 s( 25.74%)p 2.89( 74.26%)
                                            0.0000 -0.5073 -0.4930 -0.0983 -0.6999
                ( 50.56%)  -0.7111* H  16 s(100.00%)
                                           -1.0000
    56. (0.01548) BD*( 1) C   4 - C   5  
                ( 49.72%)   0.7051* C   4 s( 25.36%)p 2.94( 74.64%)
                                           -0.0001 -0.5035 -0.4652 -0.7213  0.0988
                ( 50.28%)  -0.7091* C   5 s( 25.08%)p 2.99( 74.92%)
                                            0.0000 -0.5008  0.4588  0.7233 -0.1247
    57. (0.01157) BD*( 1) C   4 - C   6  
                ( 49.88%)   0.7062* C   4 s( 25.17%)p 2.97( 74.83%)
                                            0.0000 -0.5017  0.8249 -0.1528  0.2111
                ( 50.12%)  -0.7080* C   6 s( 25.28%)p 2.96( 74.72%)
                                            0.0000 -0.5028 -0.8338  0.0941 -0.2077
    58. (0.00994) BD*( 1) C   4 - H  17  
                ( 48.66%)   0.6976* C   4 s( 24.42%)p 3.09( 75.58%)
                                            0.0000 -0.4942 -0.0406  0.2576 -0.8293
                ( 51.34%)  -0.7165* H  17 s(100.00%)
                                           -1.0000
    59. (0.00855) BD*( 1) C   4 - H  18  
                ( 48.56%)   0.6968* C   4 s( 25.05%)p 2.99( 74.95%)
                                            0.0000 -0.5005 -0.3187  0.6245  0.5079
                ( 51.44%)  -0.7172* H  18 s(100.00%)
                                           -1.0000
    60. (0.02215) BD*( 1) C   5 - C   9  
                ( 50.18%)   0.7084* C   5 s( 25.11%)p 2.98( 74.89%)
                                            0.0001  0.5011  0.8368 -0.1572  0.1548
                ( 49.82%)  -0.7059* C   9 s( 25.46%)p 2.93( 74.54%)
                                            0.0001  0.5046 -0.8400  0.1905 -0.0596
    61. (0.01161) BD*( 1) C   5 - H  19  
                ( 48.78%)   0.6984* C   5 s( 24.38%)p 3.10( 75.62%)
                                            0.0000 -0.4937  0.0944 -0.2595  0.8246
                ( 51.22%)  -0.7157* H  19 s(100.00%)
                                           -1.0000
    62. (0.00882) BD*( 1) C   6 - H  20  
                ( 48.60%)   0.6971* C   6 s( 24.72%)p 3.04( 75.28%)
                                            0.0000 -0.4972  0.4663  0.6211 -0.3867
                ( 51.40%)  -0.7169* H  20 s(100.00%)
                                           -1.0000
    63. (0.00751) BD*( 1) C   6 - H  21  
                ( 48.66%)   0.6975* C   6 s( 24.33%)p 3.11( 75.67%)
                                            0.0000 -0.4933  0.0910  0.0735  0.8620
                ( 51.34%)  -0.7166* H  21 s(100.00%)
                                           -1.0000
    64. (0.00852) BD*( 1) C   7 - H  22  
                ( 48.60%)   0.6972* C   7 s( 24.73%)p 3.04( 75.27%)
                                            0.0000 -0.4973  0.0074  0.5388 -0.6799
                ( 51.40%)  -0.7169* H  22 s(100.00%)
                                           -1.0000
    65. (0.00859) BD*( 1) C   7 - H  23  
                ( 47.99%)   0.6927* C   7 s( 25.30%)p 2.95( 74.70%)
                                            0.0000 -0.5030  0.3343 -0.7623 -0.2326
                ( 52.01%)  -0.7212* H  23 s(100.00%)
                                           -1.0000
    66. (0.01004) BD*( 1) O   8 - H  24  
                ( 40.46%)   0.6361* O   8 s( 17.01%)p 4.88( 82.99%)
                                            0.0000 -0.4124 -0.8770 -0.1504  0.1952
                ( 59.54%)  -0.7716* H  24 s(100.00%)
                                           -1.0000
    67. (0.01109) BD*( 1) C   9 - C  10  
                ( 50.94%)   0.7137* C   9 s( 25.27%)p 2.96( 74.73%)
                                            0.0000  0.5027  0.1788 -0.2951  0.7926
                ( 49.06%)  -0.7004* C  10 s( 25.86%)p 2.87( 74.14%)
                                            0.0001  0.5085 -0.2211  0.3190 -0.7686
    68. (0.01077) BD*( 1) C   9 - C  11  
                ( 51.25%)   0.7159* C   9 s( 25.04%)p 2.99( 74.96%)
                                            0.0000  0.5004  0.4724  0.7076 -0.1605
                ( 48.75%)  -0.6982* C  11 s( 25.80%)p 2.88( 74.20%)
                                            0.0001  0.5079 -0.5047 -0.6745  0.1800
    69. (0.01062) BD*( 1) C   9 - H  25  
                ( 48.93%)   0.6995* C   9 s( 24.23%)p 3.13( 75.77%)
                                            0.0000 -0.4922 -0.1982  0.6131  0.5852
                ( 51.07%)  -0.7146* H  25 s(100.00%)
                                           -1.0000
    70. (0.00682) BD*( 1) C  10 - H  26  
                ( 48.17%)   0.6941* C  10 s( 24.88%)p 3.02( 75.12%)
                                            0.0000 -0.4988  0.2023 -0.5671 -0.6235
                ( 51.83%)  -0.7199* H  26 s(100.00%)
                                           -1.0000
    71. (0.00587) BD*( 1) C  10 - H  27  
                ( 48.03%)   0.6930* C  10 s( 24.76%)p 3.04( 75.24%)
                                            0.0000 -0.4976  0.4223  0.7443 -0.1418
                ( 51.97%)  -0.7209* H  27 s(100.00%)
                                           -1.0000
    72. (0.00488) BD*( 1) C  10 - H  28  
                ( 48.11%)   0.6936* C  10 s( 24.50%)p 3.08( 75.50%)
                                            0.0000 -0.4950 -0.8555  0.1509 -0.0188
[...]
   39     271.1733       -0.0061     271.1794        -0.0034     271.1768
   43      33.5570        0.1101      33.4469        -3.9378      37.4948
   44      -0.9181      -39.6633      38.7452       -40.9068      39.9887
 Sum      349.9069      -23.9257     373.8326       -28.0055     377.9124

 Contributions to Isotropic shielding for atom    9 (   212.9133 ppm):
                         Standard Origin              Atomic Origin
 NLMO      Total    Paramagnetic  Diamagnetic   Paramagnetic  Diamagnetic
   11      -0.1251       -0.3988       0.2736        -1.0066       0.8814
   15      -0.1048       -0.4566       0.3518        -1.0058       0.9010
   16       5.5554      -10.1679      15.7233        -2.3181       7.8735
   17       0.4028       -0.0273       0.4300        -0.6280       1.0307
   23      -1.0451       -6.1316       5.0865        -8.5934       7.5483
   24      -1.6210       -5.0851       3.4642        -8.9798       7.3588
   25       5.2199       -0.9435       6.1634        -5.6648      10.8847
   26       0.9710       -0.2921       1.2631        -0.0626       1.0336
   27       0.6296       -0.5173       1.1469        -0.3715       1.0012
   28       0.6068       -0.1999       0.8068        -0.4202       1.0270
   29       1.0013       -0.3269       1.3283        -0.0387       1.0401
   30       0.6673       -0.6511       1.3184        -0.3751       1.0424
   31       0.6354       -0.2662       0.9016        -0.4023       1.0378
   40     199.9269       -0.0021     199.9290         0.0027     199.9242
 Sum      212.7203      -25.4665     238.1868       -29.8643     242.5846

 Contributions to Isotropic shielding for atom   10 (   224.6589 ppm):
                         Standard Origin              Atomic Origin
 NLMO      Total    Paramagnetic  Diamagnetic   Paramagnetic  Diamagnetic
   23       4.4541       -9.4215      13.8756        -3.5127       7.9668
   24      -0.4324        0.0509      -0.4833        -1.0955       0.6630
   25       0.3162        0.0058       0.3104        -0.6932       1.0094
   26       6.9087       -5.0747      11.9834        -4.2235      11.1322
   27       6.6468       -4.0761      10.7229        -4.5107      11.1575
   28       5.8916        3.9591       1.9325        -5.2225      11.1141
   41     200.0733       -0.0028     200.0761         0.0017     200.0715
 Sum      223.8583      -14.5594     238.4176       -19.2564     243.1147

 Contributions to Isotropic shielding for atom   11 (   221.8179 ppm):
                         Standard Origin              Atomic Origin
 NLMO      Total    Paramagnetic  Diamagnetic   Paramagnetic  Diamagnetic
   10      -0.0852        0.0871      -0.1724        -1.0662       0.9809
   23      -0.5202        0.0016      -0.5218        -1.2213       0.7012
   24       4.2041      -11.1553      15.3594        -3.8898       8.0939
   25       0.3092        0.1378       0.1714        -0.7223       1.0315
   28      -0.1301       -0.6246       0.4944        -1.0642       0.9341
   29       6.5641       -4.5497      11.1138        -4.4884      11.0525
   30       5.8797       -4.4522      10.3319        -5.2075      11.0873
   31       4.9889        3.0408       1.9481        -6.1908      11.1797
   42     200.0779       -0.0030     200.0810         0.0019     200.0761
 Sum      221.2884      -17.5175     238.8059       -23.8487     245.1371

 Contributions to Isotropic shielding for atom   12 (    32.3222 ppm):
                         Standard Origin              Atomic Origin
 NLMO      Total    Paramagnetic  Diamagnetic   Paramagnetic  Diamagnetic
    1       1.4093       -0.5846       1.9939         0.4155       0.9938
    2      26.3480        0.1279      26.2201         0.4277      25.9203
    3       1.9066        1.7153       0.1913         0.0795       1.8271
    4       1.8739        2.1391      -0.2652         0.0389       1.8349
    5      -0.1582        0.7958      -0.9540        -1.0885       0.9303
 Sum       31.3795        4.1935      27.1860        -0.1268      31.5063

 Contributions to Isotropic shielding for atom   13 (    32.6752 ppm):
                         Standard Origin              Atomic Origin
 NLMO      Total    Paramagnetic  Diamagnetic   Paramagnetic  Diamagnetic
    1       1.6422       -1.2333       2.8755         0.7632       0.8790
    2       1.9596        1.9680      -0.0084         0.1368       1.8228
    3      26.4032        0.2774      26.1258         0.4407      25.9625
    4       1.9366        1.6375       0.2991         0.1100       1.8266
 Sum       31.9415        2.6496      29.2919         1.4507      30.4908

 Contributions to Isotropic shielding for atom   14 (    32.3835 ppm):
                         Standard Origin              Atomic Origin
 NLMO      Total    Paramagnetic  Diamagnetic   Paramagnetic  Diamagnetic
    1       1.5040       -0.8163       2.3203         0.5069       0.9971
    2       1.9212        2.2630      -0.3418         0.0790       1.8422
    3       1.9043        1.4959       0.4084         0.0686       1.8356
    4      26.3531        0.2024      26.1507         0.4510      25.9021
    6      -0.1178        0.6697      -0.7876        -1.0101       0.8923
 Sum       31.5647        3.8147      27.7500         0.0953      31.4694

 Contributions to Isotropic shielding for atom   15 (    32.1710 ppm):
                         Standard Origin              Atomic Origin
 NLMO      Total    Paramagnetic  Diamagnetic   Paramagnetic  Diamagnetic
    1       0.7920        2.0924      -1.3004        -0.1947       0.9867
    2       0.2594       -0.9366       1.1961        -0.7032       0.9626
    4       0.2573       -1.0044       1.2618        -0.7133       0.9707
    5       1.4594        0.3892       1.0703         0.5496       0.9098
    6       1.5229        0.0208       1.5021         0.6387       0.8842
    7      26.2456        0.0361      26.2095         0.3756      25.8700
   10       0.0890       -0.3195       0.4085        -1.2859       1.3749
   19      -0.0683       -0.5523       0.4839        -1.2149       1.1466
 Sum       30.5574       -0.2743      30.8317        -2.5481      33.1055

 Contributions to Isotropic shielding for atom   16 (    31.9756 ppm):
                         Standard Origin              Atomic Origin
 NLMO      Total    Paramagnetic  Diamagnetic   Paramagnetic  Diamagnetic
    9       0.7375        0.4590       0.2785        -0.4896       1.2271
   10       0.6530        1.0826      -0.4296        -0.9619       1.6149
   11      26.7486        0.3383      26.4103         0.7392      26.0094
   16      -0.1824       -0.1771      -0.0053        -1.1185       0.9361
   20       0.1053       -0.5261       0.6315        -0.9705       1.0758
   26      -0.3711       -1.4414       1.0703        -0.8748       0.5037
   29      -0.2261       -1.2234       0.9973        -0.8343       0.6081
 Sum       27.4648       -1.4883      28.9530        -4.5104      31.9751

 Contributions to Isotropic shielding for atom   17 (    32.7210 ppm):
                         Standard Origin              Atomic Origin
 NLMO      Total    Paramagnetic  Diamagnetic   Paramagnetic  Diamagnetic
   12       1.3502       -0.0070       1.3572         0.4718       0.8783
   13       1.1186        0.8296       0.2890         0.1363       0.9822
   14      26.4638        0.1220      26.3418         0.3915      26.0723
   15       2.0083        1.4800       0.5283         0.2382       1.7701
   18       0.0170       -0.7366       0.7536        -1.0710       1.0880
   23       0.0220       -0.6839       0.7059        -1.0131       1.0352
   27      -0.3751       -1.5308       1.1557        -0.9387       0.5636
 Sum       30.6048       -0.5267      31.1315        -1.7850      32.3898

 Contributions to Isotropic shielding for atom   18 (    32.5746 ppm):
                         Standard Origin              Atomic Origin
 NLMO      Total    Paramagnetic  Diamagnetic   Paramagnetic  Diamagnetic
   12       1.3175        0.5307       0.7868         0.4271       0.8903
   13       1.0572        1.3818      -0.3246         0.0384       1.0188
   14       2.1128        1.3339       0.7789         0.3836       1.7292
   15      26.4383        0.0518      26.3864         0.4639      25.9743
   16      -0.0291        0.1086      -0.1377        -1.0153       0.9863
   19       0.0839       -0.4914       0.5753        -1.0181       1.1020
 Sum       30.9806        2.9154      28.0652        -0.7203      31.7009

 Contributions to Isotropic shielding for atom   19 (    32.4927 ppm):
                         Standard Origin              Atomic Origin
 NLMO      Total    Paramagnetic  Diamagnetic   Paramagnetic  Diamagnetic
    8       1.3836        0.6026       0.7810         0.4421       0.9415
   10      -0.0707       -0.5701       0.4994        -1.5888       1.5181
   12       1.1464        0.7378       0.4087         0.1531       0.9934
   16       1.0502        1.3111      -0.2610        -0.0581       1.1082
   17      26.3308        0.0712      26.2596         0.4350      25.8959
   30      -0.1396       -1.3786       1.2390        -1.0099       0.8703
 Sum       29.7008        0.7741      28.9267        -1.6265      31.3273

 Contributions to Isotropic shielding for atom   20 (    32.5591 ppm):
                         Standard Origin              Atomic Origin
 NLMO      Total    Paramagnetic  Diamagnetic   Paramagnetic  Diamagnetic
    1      -0.2008       -0.1749      -0.0259        -1.3109       1.1101
    3       0.0178       -1.1007       1.1184        -0.9337       0.9515
    5       1.0964        1.0840       0.0124         0.2351       0.8613
   13       1.1922        0.6483       0.5438         0.1319       1.0603
   14       0.0088        0.0464      -0.0376        -1.1137       1.1225
   18      26.4946       -0.0555      26.5501         0.5058      25.9888
   19       2.0379        1.9817       0.0561         0.2638       1.7741
 Sum       30.6468        2.4294      28.2174        -2.2217      32.8685

 Contributions to Isotropic shielding for atom   21 (    32.1789 ppm):
                         Standard Origin              Atomic Origin
 NLMO      Total    Paramagnetic  Diamagnetic   Paramagnetic  Diamagnetic
    2      -0.0505       -1.1298       1.0793        -0.8874       0.8369
    5       1.1197        0.7050       0.4147         0.0589       1.0608
    7      -0.0486       -0.3730       0.3245        -1.1468       1.0982
   13       1.2914        0.3560       0.9354         0.3196       0.9718
   15      -0.0047       -0.0552       0.0506        -1.0654       1.0607
   18       1.9385        2.0031      -0.0647         0.1541       1.7844
   19      26.4700       -0.0015      26.4715         0.4260      26.0440
 Sum       30.7159        1.5045      29.2114        -2.1409      32.8568

 Contributions to Isotropic shielding for atom   22 (    32.6682 ppm):
                         Standard Origin              Atomic Origin
 NLMO      Total    Paramagnetic  Diamagnetic   Paramagnetic  Diamagnetic
    3      -0.0374       -1.3464       1.3090        -0.9175       0.8801
    6       1.1333        0.7806       0.3527         0.2705       0.8628
    9       1.4704        0.1539       1.3165         0.6868       0.7835
   11       0.0846       -0.1260       0.2106        -0.9552       1.0398
   20      26.4150        0.1716      26.2434         0.4171      25.9979
   21       1.9490        1.5550       0.3940         0.1522       1.7968
 Sum       31.0148        1.1886      29.8262        -0.3461      31.3609

 Contributions to Isotropic shielding for atom   23 (    32.0046 ppm):
                         Standard Origin              Atomic Origin
 NLMO      Total    Paramagnetic  Diamagnetic   Paramagnetic  Diamagnetic
    4      -0.0825       -1.5204       1.4379        -0.9787       0.8962
    6       0.9860        1.2965      -0.3105         0.0423       0.9437
    9       1.2708        0.6424       0.6284         0.3868       0.8840
   10       0.0214       -0.0352       0.0567        -1.7640       1.7854
   20       2.0354        1.3875       0.6478         0.2942       1.7412
   21      26.1045        0.0989      26.0056         0.4738      25.6307
 Sum       30.3356        1.8696      28.4659        -1.5456      31.8812

 Contributions to Isotropic shielding for atom   24 (    34.6456 ppm):
                         Standard Origin              Atomic Origin
 NLMO      Total    Paramagnetic  Diamagnetic   Paramagnetic  Diamagnetic
    8      -0.0665        0.0923      -0.1587        -1.0484       0.9819
   10       1.6949        1.6534       0.0416         1.0077       0.6872
   11       0.2080        0.2248      -0.0168        -0.8000       1.0080
   22      22.9943       -0.4475      23.4418        -0.1792      23.1735
   29      -0.2564       -1.2282       0.9718        -1.1147       0.8583
   30      -0.1426       -1.0309       0.8883        -1.0926       0.9500
   43       3.8941        1.1730       2.7212         1.9085       1.9856
   44       5.1401        2.0226       3.1176         1.9522       3.1880
 Sum       33.4659        2.4594      31.0065         0.6334      32.8325

 Contributions to Isotropic shielding for atom   25 (    32.4809 ppm):
                         Standard Origin              Atomic Origin
 NLMO      Total    Paramagnetic  Diamagnetic   Paramagnetic  Diamagnetic
   12      -0.0714        0.3670      -0.4384        -1.0218       0.9504
   16       1.6959       -0.0011       1.6971         0.6182       1.0777
   23       0.9133        1.7297      -0.8164        -0.1372       1.0505
   24       0.8305        1.9916      -1.1611        -0.1725       1.0031
   25      26.4871       -0.1397      26.6268         0.4442      26.0429
   31       0.2046       -0.5511       0.7556        -0.8096       1.0142
 Sum       30.0600        3.3964      26.6636        -1.0788      31.1388

 Contributions to Isotropic shielding for atom   26 (    32.8725 ppm):
                         Standard Origin              Atomic Origin
 NLMO      Total    Paramagnetic  Diamagnetic   Paramagnetic  Diamagnetic
    8      -0.0943        0.0970      -0.1913        -1.0329       0.9386
   23       1.5300       -0.8022       2.3322         0.5988       0.9312
   26      26.3169        0.2917      26.0252         0.3749      25.9420
   27       2.1139        0.5004       1.6135         0.2905       1.8234
   28       1.9566        2.0140      -0.0573         0.1129       1.8438
 Sum       31.8232        2.1009      29.7222         0.3442      31.4790

 Contributions to Isotropic shielding for atom   27 (    32.6071 ppm):
                         Standard Origin              Atomic Origin
 NLMO      Total    Paramagnetic  Diamagnetic   Paramagnetic  Diamagnetic
   12      -0.0686        0.1239      -0.1925        -1.0456       0.9770
   23       1.4925       -0.6337       2.1262         0.4746       1.0179
   26       2.1016        0.4048       1.6968         0.2603       1.8413
   27      26.2553        0.2263      26.0290         0.3785      25.8768
   28       1.9286        2.1340      -0.2055         0.0473       1.8812
 Sum       31.7094        2.2554      29.4540         0.1151      31.5943

 Contributions to Isotropic shielding for atom   28 (    32.6565 ppm):
                         Standard Origin              Atomic Origin
 NLMO      Total    Paramagnetic  Diamagnetic   Paramagnetic  Diamagnetic
   23       1.1801        0.8509       0.3292         0.1563       1.0238
   24      -0.1802        0.6095      -0.7896        -1.1795       0.9993
   26       2.0087        1.5740       0.4347         0.1424       1.8663
   27       2.0294        1.8395       0.1898         0.1512       1.8782
   28      26.2900       -0.0589      26.3490         0.4030      25.8870
 Sum       31.3280        4.8150      26.5131        -0.3265      31.6546

 Contributions to Isotropic shielding for atom   29 (    33.0376 ppm):
                         Standard Origin              Atomic Origin
 NLMO      Total    Paramagnetic  Diamagnetic   Paramagnetic  Diamagnetic
    8      -0.1110        0.1413      -0.2523        -1.0722       0.9612
   10      -0.1404        0.2272      -0.3676        -1.2361       1.0957
   23      -0.1428        0.2327      -0.3755        -1.0607       0.9178
   24       1.5397       -0.9713       2.5110         0.6006       0.9391
   29      26.4199        0.2895      26.1303         0.3885      26.0313
   30       2.0640        0.6271       1.4369         0.2649       1.7991
   31       1.9326        2.1108      -0.1782         0.0692       1.8633
 Sum       31.5619        2.6574      28.9046        -2.0457      33.6076

 Contributions to Isotropic shielding for atom   30 (    32.7886 ppm):
                         Standard Origin              Atomic Origin
 NLMO      Total    Paramagnetic  Diamagnetic   Paramagnetic  Diamagnetic
   10      -0.0602        0.0414      -0.1017        -1.0322       0.9720
   24       1.5706       -0.8008       2.3715         0.5459       1.0247
   29       2.0807        0.6121       1.4686         0.2707       1.8100
   30      26.3492        0.2897      26.0595         0.4084      25.9407
   31       1.9240        2.2148      -0.2908         0.0638       1.8602
 Sum       31.8643        2.3572      29.5071         0.2567      31.6076

 Contributions to Isotropic shielding for atom   31 (    32.4425 ppm):
                         Standard Origin              Atomic Origin
 NLMO      Total    Paramagnetic  Diamagnetic   Paramagnetic  Diamagnetic
   23      -0.1661        0.7029      -0.8690        -1.1040       0.9378
   24       1.2171        0.5379       0.6793         0.1858       1.0313
   29       1.9481        1.6741       0.2740         0.0935       1.8547
   30       1.9524        1.8205       0.1319         0.1015       1.8509
   31      26.2473       -0.0089      26.2562         0.4519      25.7954
 Sum       31.1988        4.7264      26.4724        -0.2712      31.4700
 
 1\1\GINC-COMPUTE-10-3\SP\RHF\STO-3G\C10H20O1\YTSAI.IQUIR\03-Aug-2021\0
 \\# rhf/STO-3G nmr pop=nbo\\comment\\0,1\C,0,0.412878088,0.968998658,-
 3.542027702\C,0,-0.111213618,0.504170321,-2.184702345\C,0,0.265279077,
 -1.061128283,-0.229954454\C,0,-0.128907005,1.412917991,0.215311547\C,0
 ,-0.524401458,-0.021255779,0.606242814\C,0,-0.390665597,1.703424689,-1
 .264614989\C,0,0.856444744,-0.484952951,-1.524754806\O,0,-0.616086958,
 -2.121895495,-0.615371483\C,0,-0.429031249,-0.225666898,2.149767218\C,
 0,0.972823965,-0.009084333,2.730332296\C,0,-0.96142502,-1.589976167,2.
 595931649\H,0,-0.292207976,1.661748496,-4.013425293\H,0,1.377056221,1.
 479111974,-3.442905855\H,0,0.549196472,0.11795495,-4.217564063\H,0,-1.
 062175554,-0.015980153,-2.363256664\H,0,1.078405391,-1.518855233,0.340
 858364\H,0,0.937181166,1.576124727,0.41471065\H,0,-0.675264986,2.14360
 4825,0.823641243\H,0,-1.590691752,-0.132236316,0.356956073\H,0,0.21196
 2112,2.572953239,-1.555424045\H,0,-1.437519835,2.005725244,-1.39607063
 6\H,0,1.80310138,0.023606008,-1.301724615\H,0,1.084493211,-1.299964739
 ,-2.222985001\H,0,-0.941577182,-2.554058798,0.190239907\H,0,-1.0824046
 68,0.528355142,2.610766238\H,0,1.702709548,-0.710187462,2.315725218\H,
 0,1.331352695,1.007709758,2.546599129\H,0,0.961952971,-0.15053106,3.81
 7044986\H,0,-0.298925073,-2.404974354,2.288065545\H,0,-1.958992872,-1.
 775384878,2.184755996\H,0,-1.04334624,-1.630273124,3.687833078\\Versio
 n=EM64L-G09RevC.01\State=1-A\HF=-459.6127502\RMSD=8.510e-09\Dipole=0.0
 82384,0.1952939,0.5326846\Quadrupole=0.7069908,-0.51583,-0.1911608,-0.
 2486612,-0.9302317,-2.0715247\PG=C01 [X(C10H20O1)]\\@


 "PERFECTION IS NOT AN ACCIDENT"
         --  EAGLE ELECTRIC MANUFACTURING CO.,INC. NY
 Job cpu time:  0 days  0 hours  0 minutes 40.9 seconds.
 File lengths (MBytes):  RWF=      5 Int=      0 D2E=      0 Chk=      1 Scr=      1
 Normal termination of Gaussian 09 at Tue Aug  3 16:36:34 2021.
