 Entering Gaussian System, Link 0=g09
 Input=/home/ytsai.iquir/menthol/03_menthol_M0055_MMFF_NMR_rhf_STO-3G_nbo.gjc
 Output=/home/ytsai.iquir/menthol/03_menthol_M0055_MMFF_NMR_rhf_STO-3G_nbo.log
 Initial command:
 /share/apps/Gaussian09/EM64T.SSE4.2-enabled/g09/l1.exe /tmp/Gau-10315.inp -scrdir=/tmp/
 Entering Link 1 = /share/apps/Gaussian09/EM64T.SSE4.2-enabled/g09/l1.exe PID=     10316.
  
 Copyright (c) 1988,1990,1992,1993,1995,1998,2003,2009,2011,
            Gaussian, Inc.  All Rights Reserved.
  
 This is part of the Gaussian(R) 09 program.  It is based on
 the Gaussian(R) 03 system (copyright 2003, Gaussian, Inc.),
 the Gaussian(R) 98 system (copyright 1998, Gaussian, Inc.),
 the Gaussian(R) 94 system (copyright 1995, Gaussian, Inc.),
 the Gaussian 92(TM) system (copyright 1992, Gaussian, Inc.),
 the Gaussian 90(TM) system (copyright 1990, Gaussian, Inc.),
 the Gaussian 88(TM) system (copyright 1988, Gaussian, Inc.),
 the Gaussian 86(TM) system (copyright 1986, Carnegie Mellon
 University), and the Gaussian 82(TM) system (copyright 1983,
 Carnegie Mellon University). Gaussian is a federally registered
 trademark of Gaussian, Inc.
  
 This software contains proprietary and confidential information,
 including trade secrets, belonging to Gaussian, Inc.
  
 This software is provided under written license and may be
 used, copied, transmitted, or stored only in accord with that
 written license.
  
 The following legend is applicable only to US Government
 contracts under FAR:
  
                    RESTRICTED RIGHTS LEGEND
  
 Use, reproduction and disclosure by the US Government is
 subject to restrictions as set forth in subparagraphs (a)
 and (c) of the Commercial Computer Software - Restricted
 Rights clause in FAR 52.227-19.
  
 Gaussian, Inc.
 340 Quinnipiac St., Bldg. 40, Wallingford CT 06492
  
  
 ---------------------------------------------------------------
 Warning -- This program may not be used in any manner that
 competes with the business of Gaussian, Inc. or will provide
 assistance to any competitor of Gaussian, Inc.  The licensee
 of this program is prohibited from giving any competitor of
 Gaussian, Inc. access to this program.  By using this program,
 the user acknowledges that Gaussian, Inc. is engaged in the
 business of creating and licensing software in the field of
 computational chemistry and represents and warrants to the
 licensee that it is not a competitor of Gaussian, Inc. and that
 it will not use this program in any manner prohibited above.
 ---------------------------------------------------------------
  

 Cite this work as:
 Gaussian 09, Revision C.01,
 M. J. Frisch, G. W. Trucks, H. B. Schlegel, G. E. Scuseria, 
 M. A. Robb, J. R. Cheeseman, G. Scalmani, V. Barone, B. Mennucci, 
 G. A. Petersson, H. Nakatsuji, M. Caricato, X. Li, H. P. Hratchian, 
 A. F. Izmaylov, J. Bloino, G. Zheng, J. L. Sonnenberg, M. Hada, 
 M. Ehara, K. Toyota, R. Fukuda, J. Hasegawa, M. Ishida, T. Nakajima, 
 Y. Honda, O. Kitao, H. Nakai, T. Vreven, J. A. Montgomery, Jr., 
 J. E. Peralta, F. Ogliaro, M. Bearpark, J. J. Heyd, E. Brothers, 
 K. N. Kudin, V. N. Staroverov, T. Keith, R. Kobayashi, J. Normand, 
 K. Raghavachari, A. Rendell, J. C. Burant, S. S. Iyengar, J. Tomasi, 
 M. Cossi, N. Rega, J. M. Millam, M. Klene, J. E. Knox, J. B. Cross, 
 V. Bakken, C. Adamo, J. Jaramillo, R. Gomperts, R. E. Stratmann, 
 O. Yazyev, A. J. Austin, R. Cammi, C. Pomelli, J. W. Ochterski, 
 R. L. Martin, K. Morokuma, V. G. Zakrzewski, G. A. Voth, 
 P. Salvador, J. J. Dannenberg, S. Dapprich, A. D. Daniels, 
 O. Farkas, J. B. Foresman, J. V. Ortiz, J. Cioslowski, 
 and D. J. Fox, Gaussian, Inc., Wallingford CT, 2010.
 
 ******************************************
 Gaussian 09:  EM64L-G09RevC.01 23-Sep-2011
                 3-Aug-2021 
 ******************************************
 %nprocshared=4
 Will use up to    4 processors via shared memory.
 ------------------------
 # rhf/STO-3G nmr pop=nbo
 ------------------------
 1/38=1/1;
 2/12=2,17=6,18=5,40=1/2;
 3/6=3,11=1,16=1,25=1,30=1,116=1/1,2,8,3;
 4//1;
 5/5=2,38=5/2;
 8/6=1,10=90,11=11/1;
 10/13=100,45=16/2;
 6/7=2,8=2,9=2,10=2,28=1,64=1/1,7;
 99/9=1/99;
 -------
 comment
 -------
 Charge =  0 Multiplicity = 1
 Symbolic Z-Matrix:
 6                    -2.11072  -1.67264  -1.96229 
 6                    -1.56167  -1.17259  -0.62599 
 6                     0.44133  -1.27448   0.95156 
 6                    -0.89985   0.89375   0.69076 
 6                     0.43761   0.26238   1.12938 
 6                    -1.47781   0.35437  -0.61617 
 6                    -0.18774  -1.79062  -0.34346 
 8                    -0.26351  -1.86565   2.05229 
 6                     1.71804   0.94867   0.56077 
 6                     1.93587   2.3268    1.20518 
 6                     1.78754   1.10072  -0.95659 
 1                    -2.2001   -2.76408  -1.96102 
 1                    -3.10497  -1.25544  -2.1538 
 1                    -1.45787  -1.38715  -2.79419 
 1                    -2.26263  -1.48867   0.15711 
 1                     1.46451  -1.65867   1.02487 
 1                    -0.81735   1.9837    0.6276 
 1                    -1.63837   0.70211   1.48127 
 1                     0.48896   0.43324   2.21608 
 1                    -0.88302   0.69981  -1.46724 
 1                    -2.48052   0.77714  -0.75711 
 1                     0.4839   -1.59949  -1.18598 
 1                    -0.30186  -2.88052  -0.27788 
 1                    -1.15956  -1.49138   2.07963 
 1                     2.57717   0.33422   0.86276 
 1                     1.15993   3.04139   0.91435 
 1                     1.94089   2.2528    2.29771 
 1                     2.90197   2.74484   0.90108 
 1                     1.03371   1.79987  -1.32973 
 1                     1.67102   0.14546  -1.46964 
 1                     2.76508   1.50009  -1.25133 
 
                          Input orientation:                          
 ---------------------------------------------------------------------
 Center     Atomic      Atomic             Coordinates (Angstroms)
 Number     Number       Type             X           Y           Z
 ---------------------------------------------------------------------
      1          6           0       -2.110723   -1.672640   -1.962292
      2          6           0       -1.561668   -1.172592   -0.625991
      3          6           0        0.441329   -1.274478    0.951560
      4          6           0       -0.899850    0.893746    0.690763
      5          6           0        0.437610    0.262385    1.129381
      6          6           0       -1.477807    0.354367   -0.616166
      7          6           0       -0.187736   -1.790618   -0.343459
      8          8           0       -0.263506   -1.865648    2.052291
      9          6           0        1.718039    0.948673    0.560768
     10          6           0        1.935875    2.326798    1.205182
     11          6           0        1.787543    1.100722   -0.956590
     12          1           0       -2.200100   -2.764080   -1.961018
     13          1           0       -3.104974   -1.255439   -2.153798
     14          1           0       -1.457872   -1.387148   -2.794192
     15          1           0       -2.262627   -1.488667    0.157107
     16          1           0        1.464511   -1.658671    1.024872
     17          1           0       -0.817353    1.983697    0.627597
     18          1           0       -1.638370    0.702106    1.481274
     19          1           0        0.488965    0.433241    2.216080
     20          1           0       -0.883022    0.699815   -1.467240
     21          1           0       -2.480524    0.777145   -0.757107
     22          1           0        0.483900   -1.599494   -1.185978
     23          1           0       -0.301857   -2.880518   -0.277883
     24          1           0       -1.159559   -1.491382    2.079625
     25          1           0        2.577172    0.334223    0.862763
     26          1           0        1.159929    3.041394    0.914347
     27          1           0        1.940891    2.252797    2.297713
     28          1           0        2.901967    2.744842    0.901084
     29          1           0        1.033711    1.799874   -1.329730
     30          1           0        1.671022    0.145460   -1.469638
     31          1           0        2.765083    1.500091   -1.251326
 ---------------------------------------------------------------------
                    Distance matrix (angstroms):
                    1          2          3          4          5
     1  C    0.000000
     2  C    1.528794   0.000000
     3  C    3.893847   2.551675   0.000000
     4  C    3.884747   2.538030   2.562806   0.000000
     5  C    4.449356   3.022847   1.547120   1.542661   0.000000
     6  C    2.514239   1.529292   2.965466   1.527426   2.593110
     7  C    2.516430   1.532799   1.529444   2.963534   2.602909
     8  O    4.423386   3.055936   1.434532   3.142125   2.423190
     9  C    5.281718   4.082235   2.593281   2.621690   1.560068
    10  C    6.511786   5.275578   3.907323   3.218633   2.551929
    11  C    4.888707   4.061338   3.330901   3.158907   2.622289
    12  H    1.095094   2.173183   4.204661   4.701307   5.066317
    13  H    1.095110   2.173213   4.713797   4.192028   5.062900
    14  H    1.095343   2.181262   4.201228   4.202235   4.659209
    15  H    2.132786   1.097492   2.826378   2.796040   3.361960
    16  H    4.658932   3.481291   1.095391   3.495235   2.180803
    17  H    4.663597   3.476729   3.507839   1.094892   2.188524
    18  H    4.209594   2.821513   2.917641   1.098656   2.151018
    19  H    5.352748   3.855018   2.125461   2.113637   1.101247
    20  H    2.716776   2.161982   3.391508   2.166765   2.945820
    21  H    2.755117   2.159389   3.958020   2.146731   3.512737
    22  H    2.709260   2.163373   2.162525   3.413674   2.971467
    23  H    2.751036   2.150655   2.154814   3.942200   3.522079
    24  H    4.156280   2.753848   1.970387   2.772224   2.555311
    25  H    5.829648   4.649396   2.675374   3.525951   2.157307
    26  H    6.418282   5.247610   4.375445   2.984136   2.879389
    27  H    7.069108   5.705196   4.062325   3.535409   2.754378
    28  H    7.269122   6.132070   4.712984   4.233745   3.505391
    29  H    4.727151   4.008341   3.873866   2.939748   2.960817
    30  H    4.224902   3.591558   3.064403   3.440443   2.879214
    31  H    5.860476   5.123969   4.236835   4.191789   3.552015
                    6          7          8          9         10
     6  C    0.000000
     7  C    2.517859   0.000000
     8  O    3.677453   2.398122   0.000000
     9  C    3.457139   3.457358   3.751208   0.000000
    10  C    4.342927   4.884785   4.809518   1.536863   0.000000
    11  C    3.366815   3.554926   4.696755   1.526540   2.489683
    12  H    3.472037   2.759299   4.545792   5.957831   7.283415
    13  H    2.757437   3.474770   5.112483   5.957218   7.037423
    14  H    2.788739   2.789646   5.014366   5.176701   6.426967
    15  H    2.147246   2.155671   2.780346   4.685005   5.769198
    16  H    3.924611   2.149340   2.021007   2.660435   4.017295
    17  H    2.153570   3.947762   4.141733   2.739335   2.834005
    18  H    2.132125   3.412867   2.968109   3.489070   3.935870
    19  H    3.449062   3.457559   2.424444   2.125171   2.588632
    20  H    1.094271   2.819319   4.399147   3.307608   4.211305
    21  H    1.097290   3.467187   4.448847   4.403879   5.075094
    22  H    2.826757   1.094285   3.334042   3.326767   4.820958
    23  H    3.458580   1.097819   2.541878   4.409764   5.858589
    24  H    3.282585   2.627798   0.971460   4.067109   4.992480
    25  H    4.316306   3.689802   3.784687   1.098571   2.121053
    26  H    4.064510   5.171714   5.234515   2.194536   1.094224
    27  H    4.876703   5.277883   4.677733   2.183433   1.095046
    28  H    5.215251   5.627215   5.709826   2.178009   1.095706
    29  H    2.984357   3.918711   5.153337   2.183308   2.741775
    30  H    3.269126   2.910611   4.493432   2.184012   3.461653
    31  H    4.440521   4.513549   5.604858   2.164266   2.721298
                   11         12         13         14         15
    11  C    0.000000
    12  H    5.643303   0.000000
    13  H    5.560713   1.769734   0.000000
    14  H    4.483191   1.772293   1.772116   0.000000
    15  H    4.934484   2.473265   2.470674   3.060735   0.000000
    16  H    3.412446   4.854569   5.580926   4.816565   3.830598
    17  H    3.174079   5.581604   4.843694   4.845771   3.790447
    18  H    4.223619   4.917251   4.381399   4.762055   2.634881
    19  H    3.492516   5.907798   5.904564   5.675105   3.937557
    20  H    2.748346   3.738593   3.038331   2.539029   3.054712
    21  H    4.284961   3.750774   2.544029   3.143198   2.452991
    22  H    3.007203   3.026682   3.732971   2.530203   3.059342
    23  H    4.547143   2.539651   3.743983   3.146162   2.443581
    24  H    4.962159   4.362256   4.664995   4.884050   2.216493
    25  H    2.126283   6.355749   6.626723   5.711219   5.219630
    26  H    2.767764   7.298017   6.787171   6.341777   5.727892
    27  H    3.455616   7.775194   7.588441   7.122379   6.020823
    28  H    2.719563   8.035604   7.836957   7.052418   6.719310
    29  H    1.093760   5.629008   5.209869   4.302295   4.887845
    30  H    1.090560   4.867490   5.024016   3.727373   4.559634
    31  H    1.096334   6.583301   6.547135   5.343214   6.016163
                   16         17         18         19         20
    16  H    0.000000
    17  H    4.316432   0.000000
    18  H    3.925486   1.745081   0.000000
    19  H    2.597454   2.575589   2.266667   0.000000
    20  H    4.157402   2.457847   3.043730   3.939575   0.000000
    21  H    4.967087   2.477763   2.392740   4.216156   1.749937
    22  H    2.419288   4.221561   4.112861   3.963084   2.689685
    23  H    2.511999   4.974557   4.209049   4.222115   3.817212
    24  H    2.833061   3.781754   2.323505   2.537800   4.178285
    25  H    2.288214   3.781385   4.276528   2.490358   4.187543
    26  H    4.711221   2.260662   3.691091   2.991181   3.915176
    27  H    4.140851   3.235679   3.985264   2.329278   4.955917
    28  H    4.633846   3.806242   5.012390   3.591001   4.910930
    29  H    4.206100   2.700252   4.030739   3.838906   2.214250
    30  H    3.085468   3.737583   4.468760   3.881313   2.613514
    31  H    4.104917   4.074074   5.243499   4.282731   3.741087
                   21         22         23         24         25
    21  H    0.000000
    22  H    3.823631   0.000000
    23  H    4.284243   1.755868   0.000000
    24  H    3.864998   3.657432   2.867612   0.000000
    25  H    5.329207   3.509756   4.463681   4.333215   0.000000
    26  H    4.601465   5.138699   6.215085   5.223405   3.056144
    27  H    5.573005   5.394355   6.165593   4.866132   2.478883
    28  H    5.965956   5.392228   6.580207   5.985863   2.432703
    29  H    3.704553   3.446543   4.979578   5.221734   3.055721
    30  H    4.259350   2.129457   3.803824   4.825838   2.509349
    31  H    5.318204   3.849090   5.435389   5.953735   2.421555
                   26         27         28         29         30
    26  H    0.000000
    27  H    1.773553   0.000000
    28  H    1.767149   1.765318   0.000000
    29  H    2.567721   3.766492   3.059392   0.000000
    30  H    3.785636   4.325116   3.727242   1.778434   0.000000
    31  H    3.105201   3.720421   2.490182   1.758882   1.754894
                   31
    31  H    0.000000
 Stoichiometry    C10H20O
 Framework group  C1[X(C10H20O)]
 Deg. of freedom    87
 Full point group                 C1      NOp   1
 Largest Abelian subgroup         C1      NOp   1
 Largest concise Abelian subgroup C1      NOp   1
                         Standard orientation:                         
 ---------------------------------------------------------------------
 Center     Atomic      Atomic             Coordinates (Angstroms)
 Number     Number       Type             X           Y           Z
 ---------------------------------------------------------------------
      1          6           0        3.122564   -1.192796   -0.242337
      2          6           0        1.983652   -0.281352    0.215223
      3          6           0        0.159959    1.309517   -0.593680
      4          6           0       -0.244376   -0.211754    1.428749
      5          6           0       -0.894732    0.636407    0.316336
      6          6           0        0.930313   -1.080633    0.983571
      7          6           0        1.350694    0.432735   -0.984324
      8          8           0        0.667420    2.473011    0.074638
      9          6           0       -2.032908   -0.070399   -0.482908
     10          6           0       -3.289047   -0.243835    0.385415
     11          6           0       -1.682858   -1.416209   -1.112657
     12          1           0        3.892941   -0.617675   -0.766728
     13          1           0        3.595894   -1.682632    0.615150
     14          1           0        2.761487   -1.973045   -0.921020
     15          1           0        2.413572    0.469202    0.890742
     16          1           0       -0.315990    1.685719   -1.505725
     17          1           0       -0.988813   -0.838694    1.930295
     18          1           0        0.127989    0.474466    2.201726
     19          1           0       -1.396641    1.461468    0.845587
     20          1           0        0.576358   -1.915218    0.370697
     21          1           0        1.389276   -1.531970    1.872218
     22          1           0        1.041554   -0.303949   -1.732114
     23          1           0        2.115997    1.058290   -1.462025
     24          1           0        1.029701    2.200068    0.933701
     25          1           0       -2.321507    0.603090   -1.301432
     26          1           0       -3.126251   -0.952631    1.202991
     27          1           0       -3.601914    0.712090    0.818365
     28          1           0       -4.123837   -0.619062   -0.216999
     29          1           0       -1.498253   -2.183378   -0.355237
     30          1           0       -0.814077   -1.347938   -1.768308
     31          1           0       -2.516423   -1.772380   -1.729311
 ---------------------------------------------------------------------
 Rotational constants (GHZ):      1.5399201      0.7842209      0.6680899
 Standard basis: STO-3G (5D, 7F)
 There are    75 symmetry adapted basis functions of A   symmetry.
 Integral buffers will be    131072 words long.
 Raffenetti 1 integral format.
 Two-electron integral symmetry is turned on.
    75 basis functions,   225 primitive gaussians,    75 cartesian basis functions
    44 alpha electrons       44 beta electrons
       nuclear repulsion energy       699.4041604476 Hartrees.
 NAtoms=   31 NActive=   31 NUniq=   31 SFac= 1.00D+00 NAtFMM=   60 NAOKFM=F Big=F
 One-electron integrals computed using PRISM.
 NBasis=    75 RedAO= T  NBF=    75
 NBsUse=    75 1.00D-06 NBFU=    75
 Harris functional with IExCor=  205 diagonalized for initial guess.
 ExpMin= 1.69D-01 ExpMax= 1.31D+02 ExpMxC= 1.31D+02 IAcc=1 IRadAn=         1 AccDes= 0.00D+00
 HarFok:  IExCor=  205 AccDes= 0.00D+00 IRadAn=         1 IDoV= 1
 ScaDFX=  1.000000  1.000000  1.000000  1.000000
 FoFCou: FMM=F IPFlag=           0 FMFlag=      100000 FMFlg1=           0
         NFxFlg=           0 DoJE=T BraDBF=F KetDBF=T FulRan=T
         Omega=  0.000000  0.000000  1.000000  0.000000  0.000000 ICntrl=     500 IOpCl=  0
         NMat0=    1 NMatS0=    1 NMatT0=    0 NMatD0=    1 NMtDS0=    0 NMtDT0=    0
         I1Cent=           4 NGrid=           0.
 Petite list used in FoFCou.
 Initial guess orbital symmetries:
       Occupied  (A) (A) (A) (A) (A) (A) (A) (A) (A) (A) (A) (A)
                 (A) (A) (A) (A) (A) (A) (A) (A) (A) (A) (A) (A)
                 (A) (A) (A) (A) (A) (A) (A) (A) (A) (A) (A) (A)
                 (A) (A) (A) (A) (A) (A) (A) (A)
       Virtual   (A) (A) (A) (A) (A) (A) (A) (A) (A) (A) (A) (A)
                 (A) (A) (A) (A) (A) (A) (A) (A) (A) (A) (A) (A)
                 (A) (A) (A) (A) (A) (A) (A)
 The electronic state of the initial guess is 1-A.
 Requested convergence on RMS density matrix=1.00D-08 within 128 cycles.
 Requested convergence on MAX density matrix=1.00D-06.
 Requested convergence on             energy=1.00D-06.
 No special actions if energy rises.
 Keep R1 ints in memory in canonical form, NReq=4898789.
 SCF Done:  E(RHF) =  -459.612662088     A.U. after   10 cycles
             Convg  =    0.8044D-08             -V/T =  2.0089
 Range of M.O.s used for correlation:     1    75
 NBasis=    75 NAE=    44 NBE=    44 NFC=     0 NFV=     0
 NROrb=     75 NOA=    44 NOB=    44 NVA=    31 NVB=    31
          Differentiating once with respect to magnetic field using GIAOs.
          Electric field/nuclear overlap derivatives assumed to be zero.
          Keep R3 ints in memory in canonical form, NReq=4863575.
 FoFCou: FMM=F IPFlag=           0 FMFlag=           0 FMFlg1=           0
         NFxFlg=           0 DoJE=F BraDBF=F KetDBF=T FulRan=T
         Omega=  0.000000  0.000000  1.000000  0.000000  0.000000 ICntrl=    6100 IOpCl=  0
         NMat0=    1 NMatS0=    1 NMatT0=    0 NMatD0=    1 NMtDS0=    0 NMtDT0=    0
         I1Cent=           7 NGrid=          31.
 Symmetry not used in FoFCou.
          There are     3 degrees of freedom in the 1st order CPHF.  IDoFFX=0.
      3 vectors produced by pass  0 Test12= 4.55D-14 3.33D-08 XBig12= 6.11D+00 3.81D-01.
 AX will form     3 AO Fock derivatives at one time.
      3 vectors produced by pass  1 Test12= 4.55D-14 3.33D-08 XBig12= 9.14D-03 1.33D-02.
      3 vectors produced by pass  2 Test12= 4.55D-14 3.33D-08 XBig12= 6.41D-05 2.23D-03.
      3 vectors produced by pass  3 Test12= 4.55D-14 3.33D-08 XBig12= 1.82D-06 4.61D-04.
      3 vectors produced by pass  4 Test12= 4.55D-14 3.33D-08 XBig12= 1.83D-08 2.49D-05.
      3 vectors produced by pass  5 Test12= 4.55D-14 3.33D-08 XBig12= 2.48D-10 2.82D-06.
      3 vectors produced by pass  6 Test12= 4.55D-14 3.33D-08 XBig12= 2.83D-12 3.67D-07.
      1 vectors produced by pass  7 Test12= 4.55D-14 3.33D-08 XBig12= 4.49D-14 6.64D-08.
 Inverted reduced A of dimension    22 with in-core refinement.
 Calculating GIAO nuclear magnetic shielding tensors.
 SCF GIAO Magnetic shielding tensor (ppm):
      1  C    Isotropic =   220.9533   Anisotropy =    28.6259
   XX=   230.5926   YX=   -11.0590   ZX=    -4.3062
   XY=   -13.7733   YY=   219.1798   ZY=     3.0778
   XZ=    -6.5953   YZ=     3.3703   ZZ=   213.0875
   Eigenvalues:   211.1199   211.7027   240.0372
      2  C    Isotropic =   217.5850   Anisotropy =     8.6365
   XX=   220.3707   YX=    -1.1583   ZX=    -2.8085
   XY=    -1.7036   YY=   215.9694   ZY=    -2.5545
   XZ=    -6.2413   YZ=    -0.7879   ZZ=   216.4151
   Eigenvalues:   212.1919   217.2205   223.3427
      3  C    Isotropic =   187.7045   Anisotropy =    36.4487
   XX=   185.2541   YX=    16.2273   ZX=     5.7834
   XY=    15.4008   YY=   195.8198   ZY=    12.2236
   XZ=     4.4855   YZ=     9.8525   ZZ=   182.0396
   Eigenvalues:   172.8302   178.2797   212.0037
      4  C    Isotropic =   220.9720   Anisotropy =    13.8684
   XX=   224.7608   YX=    -7.1184   ZX=    -0.2677
   XY=    -8.9667   YY=   217.4945   ZY=    -1.7682
   XZ=     2.5098   YZ=    -0.6227   ZZ=   220.6606
   Eigenvalues:   212.2835   220.4148   230.2176
      5  C    Isotropic =   209.8302   Anisotropy =    19.7942
   XX=   215.7757   YX=     8.9776   ZX=    -1.3545
   XY=     9.9411   YY=   210.4590   ZY=     5.8525
   XZ=    -2.3033   YZ=     3.1011   ZZ=   203.2560
   Eigenvalues:   198.5689   207.8954   223.0263
      6  C    Isotropic =   217.9519   Anisotropy =    15.8148
   XX=   225.1560   YX=    -1.5348   ZX=    -6.3144
   XY=     2.4973   YY=   214.2537   ZY=    -1.0907
   XZ=    -7.1455   YZ=    -2.2118   ZZ=   214.4461
   Eigenvalues:   210.7272   214.6335   228.4951
      7  C    Isotropic =   216.0757   Anisotropy =    15.7359
   XX=   218.0992   YX=    -9.0430   ZX=    -1.9835
   XY=    -6.7248   YY=   218.2095   ZY=    -1.1688
   XZ=     3.0341   YZ=    -5.5601   ZZ=   211.9186
   Eigenvalues:   208.7868   212.8740   226.5664
      8  O    Isotropic =   351.5772   Anisotropy =    37.9241
   XX=   344.5797   YX=     6.3017   ZX=    -0.7569
   XY=    -5.9923   YY=   345.9185   ZY=   -33.0486
   XZ=     3.3761   YZ=    -6.4116   ZZ=   364.2334
   Eigenvalues:   333.2625   344.6092   376.8600
      9  C    Isotropic =   211.9341   Anisotropy =    19.2941
   XX=   220.1363   YX=     3.9463   ZX=     5.3294
   XY=     8.1819   YY=   206.5298   ZY=     2.6279
   XZ=     5.7315   YZ=     2.4126   ZZ=   209.1362
   Eigenvalues:   204.1690   206.8365   224.7968
     10  C    Isotropic =   220.3022   Anisotropy =    28.9623
   XX=   232.2700   YX=    -0.5045   ZX=   -12.0643
   XY=     4.8354   YY=   212.4579   ZY=     4.2748
   XZ=   -14.1562   YZ=     4.7733   ZZ=   216.1787
   Eigenvalues:   205.3272   215.9690   239.6104
     11  C    Isotropic =   223.1887   Anisotropy =    18.4617
   XX=   221.2809   YX=    -2.4059   ZX=    -0.8703
   XY=    -5.0575   YY=   229.0206   ZY=    10.3198
   XZ=    -1.6893   YZ=     7.8319   ZZ=   219.2646
   Eigenvalues:   213.7412   220.3284   235.4965
     12  H    Isotropic =    32.4385   Anisotropy =    14.1175
   XX=    38.9400   YX=     1.8335   ZX=    -5.5200
   XY=     1.4428   YY=    29.0881   ZY=    -1.8814
   XZ=    -5.4423   YZ=    -2.2461   ZZ=    29.2873
   Eigenvalues:    26.2283    29.2370    41.8501
     13  H    Isotropic =    32.4941   Anisotropy =    13.8620
   XX=    34.9202   YX=    -5.4680   ZX=     3.9228
   XY=    -5.5903   YY=    30.4375   ZY=    -4.0933
   XZ=     3.7889   YZ=    -3.8782   ZZ=    32.1246
   Eigenvalues:    26.3242    29.4227    41.7354
     14  H    Isotropic =    32.7354   Anisotropy =    11.1210
   XX=    31.0842   YX=    -1.3296   ZX=    -0.4115
   XY=    -1.5170   YY=    35.3591   ZY=     6.1679
   XZ=    -0.3511   YZ=     6.0778   ZZ=    31.7630
   Eigenvalues:    27.1015    30.9554    40.1494
     15  H    Isotropic =    33.1316   Anisotropy =    11.3800
   XX=    34.3064   YX=     2.6414   ZX=     3.6663
   XY=     2.3694   YY=    33.4203   ZY=     5.1810
   XZ=     4.0860   YZ=     4.8100   ZZ=    31.6681
   Eigenvalues:    27.1267    31.5498    40.7183
     16  H    Isotropic =    31.4738   Anisotropy =    10.8686
   XX=    30.3620   YX=    -1.0762   ZX=     3.4256
   XY=    -0.4269   YY=    29.9868   ZY=    -4.2369
   XZ=     3.5729   YZ=    -5.6352   ZZ=    34.0727
   Eigenvalues:    26.1481    29.5538    38.7196
     17  H    Isotropic =    32.5289   Anisotropy =    12.4567
   XX=    35.4012   YX=     3.0276   ZX=    -3.7660
   XY=     3.3009   YY=    28.8579   ZY=    -5.1228
   XZ=    -3.6262   YZ=    -4.7938   ZZ=    33.3277
   Eigenvalues:    25.5987    31.1546    40.8334
     18  H    Isotropic =    32.9542   Anisotropy =    13.3971
   XX=    29.2860   YX=     0.2263   ZX=     2.5094
   XY=     0.4311   YY=    30.9799   ZY=     5.5533
   XZ=     2.1363   YZ=     5.4921   ZZ=    38.5967
   Eigenvalues:    27.6099    29.3671    41.8856
     19  H    Isotropic =    32.3023   Anisotropy =    11.7890
   XX=    33.5009   YX=    -3.3035   ZX=    -2.0401
   XY=    -3.0894   YY=    35.0877   ZY=     4.7563
   XZ=    -2.8512   YZ=     5.3457   ZZ=    28.3183
   Eigenvalues:    25.5588    31.1865    40.1616
     20  H    Isotropic =    33.0021   Anisotropy =     9.3388
   XX=    33.2367   YX=     2.0437   ZX=     1.4979
   XY=     1.9463   YY=    37.1952   ZY=     3.1142
   XZ=     1.5327   YZ=     3.3747   ZZ=    28.5744
   Eigenvalues:    27.3688    32.4095    39.2280
     21  H    Isotropic =    32.6728   Anisotropy =    14.1917
   XX=    31.6837   YX=    -3.7013   ZX=     2.7119
   XY=    -3.6462   YY=    30.1993   ZY=    -6.3915
   XZ=     2.6565   YZ=    -6.7552   ZZ=    36.1355
   Eigenvalues:    25.4285    30.4560    42.1339
     22  H    Isotropic =    32.8009   Anisotropy =     9.8681
   XX=    31.4193   YX=     0.4231   ZX=     1.2284
   XY=     0.2334   YY=    30.7254   ZY=     5.4461
   XZ=     1.0865   YZ=     4.5617   ZZ=    36.2580
   Eigenvalues:    27.7478    31.2752    39.3797
     23  H    Isotropic =    32.0769   Anisotropy =    14.0638
   XX=    34.0844   YX=     3.1366   ZX=    -5.9579
   XY=     2.7855   YY=    31.0707   ZY=    -5.0434
   XZ=    -5.5086   YZ=    -5.0976   ZZ=    31.0755
   Eigenvalues:    25.2818    29.4961    41.4527
     24  H    Isotropic =    34.5354   Anisotropy =    12.3622
   XX=    29.3302   YX=     2.6392   ZX=     6.2414
   XY=     1.3105   YY=    35.6962   ZY=     0.3729
   XZ=     6.9090   YZ=     2.8604   ZZ=    38.5798
   Eigenvalues:    25.8098    35.0194    42.7769
     25  H    Isotropic =    32.4760   Anisotropy =    11.9833
   XX=    31.9714   YX=    -1.8207   ZX=     3.9867
   XY=    -1.1972   YY=    31.5525   ZY=    -5.3832
   XZ=     3.8745   YZ=    -6.0248   ZZ=    33.9040
   Eigenvalues:    26.4893    30.4738    40.4648
     26  H    Isotropic =    32.5293   Anisotropy =     9.8714
   XX=    32.6456   YX=     1.3250   ZX=    -2.1044
   XY=     1.4079   YY=    30.5392   ZY=    -5.4063
   XZ=    -2.1061   YZ=    -5.2462   ZZ=    34.4030
   Eigenvalues:    26.8038    31.6738    39.1102
     27  H    Isotropic =    32.4833   Anisotropy =    13.2286
   XX=    34.5495   YX=    -4.5836   ZX=    -3.7164
   XY=    -4.1394   YY=    33.8927   ZY=     4.1132
   XZ=    -3.7117   YZ=     4.8129   ZZ=    29.0078
   Eigenvalues:    26.1842    29.9634    41.3024
     28  H    Isotropic =    32.4258   Anisotropy =    14.5130
   XX=    40.3524   YX=     3.1056   ZX=     3.1475
   XY=     3.5458   YY=    27.7966   ZY=     2.3022
   XZ=     2.8917   YZ=     1.9502   ZZ=    29.1286
   Eigenvalues:    26.1543    29.0221    42.1012
     29  H    Isotropic =    32.8614   Anisotropy =     8.5063
   XX=    30.3727   YX=    -0.4343   ZX=     2.1872
   XY=    -0.2500   YY=    37.5638   ZY=    -2.5885
   XZ=     2.1386   YZ=    -2.5126   ZZ=    30.6478
   Eigenvalues:    28.0807    31.9714    38.5323
     30  H    Isotropic =    32.8240   Anisotropy =     9.6958
   XX=    35.9249   YX=     1.1951   ZX=    -4.1582
   XY=     0.8677   YY=    29.0045   ZY=     4.0716
   XZ=    -4.0963   YZ=     3.6667   ZZ=    33.5427
   Eigenvalues:    25.8381    33.3461    39.2879
     31  H    Isotropic =    32.5683   Anisotropy =    14.8999
   XX=    33.9696   YX=     3.7464   ZX=     5.3522
   XY=     3.9083   YY=    30.9077   ZY=     5.6421
   XZ=     5.2156   YZ=     5.5206   ZZ=    32.8277
   Eigenvalues:    26.1487    29.0547    42.5016
 End of Minotr Frequency-dependent properties file   721 does not exist.
 End of Minotr Frequency-dependent properties file   722 does not exist.

 **********************************************************************

            Population analysis using the SCF density.

 **********************************************************************

 Orbital symmetries:
       Occupied  (A) (A) (A) (A) (A) (A) (A) (A) (A) (A) (A) (A)
                 (A) (A) (A) (A) (A) (A) (A) (A) (A) (A) (A) (A)
                 (A) (A) (A) (A) (A) (A) (A) (A) (A) (A) (A) (A)
                 (A) (A) (A) (A) (A) (A) (A) (A)
       Virtual   (A) (A) (A) (A) (A) (A) (A) (A) (A) (A) (A) (A)
                 (A) (A) (A) (A) (A) (A) (A) (A) (A) (A) (A) (A)
                 (A) (A) (A) (A) (A) (A) (A)
 The electronic state is 1-A.
 Alpha  occ. eigenvalues --  -20.23266 -11.08415 -11.04984 -11.04979 -11.04401
 Alpha  occ. eigenvalues --  -11.04192 -11.03861 -11.03654 -11.03412 -11.03361
 Alpha  occ. eigenvalues --  -11.03139  -1.27484  -1.08270  -1.03977  -0.97332
 Alpha  occ. eigenvalues --   -0.95105  -0.89535  -0.88220  -0.80509  -0.78349
 Alpha  occ. eigenvalues --   -0.73805  -0.69248  -0.62400  -0.61191  -0.59284
 Alpha  occ. eigenvalues --   -0.57725  -0.56406  -0.54833  -0.53099  -0.52381
 Alpha  occ. eigenvalues --   -0.51803  -0.50296  -0.49572  -0.48272  -0.47745
 Alpha  occ. eigenvalues --   -0.47209  -0.44368  -0.43142  -0.42360  -0.41285
 Alpha  occ. eigenvalues --   -0.39598  -0.38879  -0.36324  -0.32810
 Alpha virt. eigenvalues --    0.53057   0.55557   0.57112   0.58426   0.59318
 Alpha virt. eigenvalues --    0.61392   0.62110   0.63868   0.64365   0.66487
 Alpha virt. eigenvalues --    0.68272   0.68787   0.69919   0.71695   0.72464
 Alpha virt. eigenvalues --    0.72872   0.73470   0.73955   0.74623   0.75625
 Alpha virt. eigenvalues --    0.76423   0.78375   0.78953   0.79564   0.81343
 Alpha virt. eigenvalues --    0.82017   0.82731   0.83318   0.83838   0.84893
 Alpha virt. eigenvalues --    0.85757
          Condensed to atoms (all electrons):
              1          2          3          4          5          6
     1  C    4.738995   0.366154   0.000703   0.000731   0.000002  -0.024282
     2  C    0.366154   4.747396  -0.020770  -0.021869  -0.003632   0.364467
     3  C    0.000703  -0.020770   4.744298  -0.021523   0.354747  -0.004349
     4  C    0.000731  -0.021869  -0.021523   4.759664   0.358871   0.362822
     5  C    0.000002  -0.003632   0.354747   0.358871   4.795493  -0.019531
     6  C   -0.024282   0.364467  -0.004349   0.362822  -0.019531   4.758972
     7  C   -0.024072   0.363131   0.357181  -0.004273  -0.021632  -0.023828
     8  O    0.000000  -0.000742   0.266619  -0.000224  -0.018794   0.000034
     9  C    0.000000   0.000023  -0.019543  -0.018900   0.356872  -0.000047
    10  C    0.000000   0.000000   0.000631  -0.001269  -0.022517   0.000011
    11  C    0.000001   0.000040  -0.000348  -0.001477  -0.019272  -0.000816
    12  H    0.382384  -0.020277   0.000012  -0.000017   0.000000   0.001295
    13  H    0.382400  -0.020304  -0.000017   0.000013   0.000000  -0.002242
    14  H    0.382283  -0.020658   0.000008   0.000008   0.000001  -0.002242
    15  H   -0.024362   0.381504  -0.001214  -0.001690   0.000098  -0.024531
    16  H   -0.000013   0.001156   0.379920   0.001040  -0.022783   0.000015
    17  H   -0.000015   0.001236   0.001072   0.382766  -0.020113  -0.021697
    18  H    0.000004  -0.001702  -0.000241   0.381133  -0.023119  -0.024789
    19  H    0.000001   0.000016  -0.024297  -0.025302   0.380294   0.001233
    20  H   -0.002710  -0.022611   0.000076  -0.022281  -0.000845   0.382432
    21  H   -0.002067  -0.021651   0.000016  -0.022041   0.001145   0.382327
    22  H   -0.002928  -0.022145  -0.020589   0.000073  -0.000335  -0.001621
    23  H   -0.001988  -0.022335  -0.021477   0.000015   0.001080   0.001278
    24  H   -0.000005  -0.000418  -0.040748  -0.000168  -0.003301   0.000025
    25  H    0.000000  -0.000001  -0.003891   0.001049  -0.023432  -0.000016
    26  H    0.000000   0.000000  -0.000003  -0.000588  -0.001356   0.000010
    27  H    0.000000   0.000000   0.000026   0.000049  -0.002655   0.000000
    28  H    0.000000   0.000000  -0.000013   0.000008   0.001167   0.000000
    29  H    0.000001   0.000002  -0.000003   0.000011  -0.001183  -0.001072
    30  H    0.000002  -0.000011   0.000086   0.000022  -0.001533  -0.000187
    31  H    0.000000   0.000000  -0.000002   0.000002   0.001088   0.000018
              7          8          9         10         11         12
     1  C   -0.024072   0.000000   0.000000   0.000000   0.000001   0.382384
     2  C    0.363131  -0.000742   0.000023   0.000000   0.000040  -0.020277
     3  C    0.357181   0.266619  -0.019543   0.000631  -0.000348   0.000012
     4  C   -0.004273  -0.000224  -0.018900  -0.001269  -0.001477  -0.000017
     5  C   -0.021632  -0.018794   0.356872  -0.022517  -0.019272   0.000000
     6  C   -0.023828   0.000034  -0.000047   0.000011  -0.000816   0.001295
     7  C    4.781351  -0.020835   0.000196  -0.000005  -0.000520  -0.002210
     8  O   -0.020835   7.853878   0.000247  -0.000001  -0.000001   0.000000
     9  C    0.000196   0.000247   4.741402   0.363915   0.364348   0.000000
    10  C   -0.000005  -0.000001   0.363915   4.745946  -0.027106   0.000000
    11  C   -0.000520  -0.000001   0.364348  -0.027106   4.744018   0.000000
    12  H   -0.002210   0.000000   0.000000   0.000000   0.000000   0.628845
    13  H    0.001283   0.000000   0.000000   0.000000   0.000000  -0.021575
    14  H   -0.002246   0.000000   0.000000   0.000000  -0.000001  -0.021631
    15  H   -0.024015  -0.000248   0.000000   0.000000  -0.000002  -0.002303
    16  H   -0.024551  -0.019740  -0.003818   0.000032   0.000055  -0.000001
    17  H    0.000005  -0.000002  -0.003169  -0.000620  -0.000060   0.000000
    18  H    0.000061  -0.000185   0.001173   0.000016   0.000000   0.000000
    19  H    0.001167  -0.002136  -0.024123  -0.004726   0.001166   0.000000
    20  H   -0.001707  -0.000001   0.000084   0.000009  -0.001401   0.000019
    21  H    0.001274   0.000000  -0.000009   0.000000   0.000013   0.000013
    22  H    0.379974   0.000658   0.000004  -0.000001  -0.001008  -0.000018
    23  H    0.381759  -0.001375  -0.000007   0.000000   0.000008   0.000262
    24  H   -0.001858   0.256820  -0.000001   0.000000   0.000000   0.000000
    25  H    0.000059   0.000020   0.381771  -0.024771  -0.025122   0.000000
    26  H    0.000000   0.000000  -0.020174   0.382052  -0.002389   0.000000
    27  H    0.000000   0.000000  -0.020030   0.382354   0.001330   0.000000
    28  H    0.000000   0.000000  -0.019733   0.382418  -0.002284   0.000000
    29  H    0.000028   0.000000  -0.020670  -0.002694   0.382898   0.000000
    30  H   -0.001114  -0.000001  -0.019989   0.001374   0.383332   0.000000
    31  H    0.000008   0.000000  -0.019974  -0.002498   0.381961   0.000000
             13         14         15         16         17         18
     1  C    0.382400   0.382283  -0.024362  -0.000013  -0.000015   0.000004
     2  C   -0.020304  -0.020658   0.381504   0.001156   0.001236  -0.001702
     3  C   -0.000017   0.000008  -0.001214   0.379920   0.001072  -0.000241
     4  C    0.000013   0.000008  -0.001690   0.001040   0.382766   0.381133
     5  C    0.000000   0.000001   0.000098  -0.022783  -0.020113  -0.023119
     6  C   -0.002242  -0.002242  -0.024531   0.000015  -0.021697  -0.024789
     7  C    0.001283  -0.002246  -0.024015  -0.024551   0.000005   0.000061
     8  O    0.000000   0.000000  -0.000248  -0.019740  -0.000002  -0.000185
     9  C    0.000000   0.000000   0.000000  -0.003818  -0.003169   0.001173
    10  C    0.000000   0.000000   0.000000   0.000032  -0.000620   0.000016
    11  C    0.000000  -0.000001  -0.000002   0.000055  -0.000060   0.000000
    12  H   -0.021575  -0.021631  -0.002303  -0.000001   0.000000   0.000000
    13  H    0.629918  -0.021695  -0.002307   0.000000  -0.000001   0.000002
    14  H   -0.021695   0.629926   0.001891  -0.000001   0.000000  -0.000001
    15  H   -0.002307   0.001891   0.657464  -0.000011   0.000003   0.000306
    16  H    0.000000  -0.000001  -0.000011   0.630405  -0.000026  -0.000017
    17  H   -0.000001   0.000000   0.000003  -0.000026   0.634498  -0.023710
    18  H    0.000002  -0.000001   0.000306  -0.000017  -0.023710   0.655915
    19  H    0.000000   0.000000  -0.000017  -0.000582  -0.000429  -0.005870
    20  H   -0.000013   0.000354   0.001931  -0.000012  -0.002902   0.002033
    21  H    0.000251  -0.000001  -0.002749   0.000002  -0.001728  -0.003579
    22  H    0.000024   0.000361   0.001925  -0.002759  -0.000007   0.000003
    23  H    0.000011  -0.000004  -0.002879  -0.001600   0.000002  -0.000006
    24  H    0.000001   0.000000  -0.000534   0.003595  -0.000015  -0.000288
    25  H    0.000000   0.000000   0.000000   0.000181   0.000030  -0.000031
    26  H    0.000000   0.000000   0.000000   0.000000  -0.000374  -0.000017
    27  H    0.000000   0.000000   0.000000   0.000004   0.000036  -0.000007
    28  H    0.000000   0.000000   0.000000  -0.000002  -0.000012   0.000001
    29  H    0.000000   0.000000   0.000000   0.000001  -0.000036  -0.000003
    30  H    0.000000   0.000001  -0.000001   0.000047   0.000020  -0.000004
    31  H    0.000000   0.000000   0.000000  -0.000010  -0.000011   0.000000
             19         20         21         22         23         24
     1  C    0.000001  -0.002710  -0.002067  -0.002928  -0.001988  -0.000005
     2  C    0.000016  -0.022611  -0.021651  -0.022145  -0.022335  -0.000418
     3  C   -0.024297   0.000076   0.000016  -0.020589  -0.021477  -0.040748
     4  C   -0.025302  -0.022281  -0.022041   0.000073   0.000015  -0.000168
     5  C    0.380294  -0.000845   0.001145  -0.000335   0.001080  -0.003301
     6  C    0.001233   0.382432   0.382327  -0.001621   0.001278   0.000025
     7  C    0.001167  -0.001707   0.001274   0.379974   0.381759  -0.001858
     8  O   -0.002136  -0.000001   0.000000   0.000658  -0.001375   0.256820
     9  C   -0.024123   0.000084  -0.000009   0.000004  -0.000007  -0.000001
    10  C   -0.004726   0.000009   0.000000  -0.000001   0.000000   0.000000
    11  C    0.001166  -0.001401   0.000013  -0.001008   0.000008   0.000000
    12  H    0.000000   0.000019   0.000013  -0.000018   0.000262   0.000000
    13  H    0.000000  -0.000013   0.000251   0.000024   0.000011   0.000001
    14  H    0.000000   0.000354  -0.000001   0.000361  -0.000004   0.000000
    15  H   -0.000017   0.001931  -0.002749   0.001925  -0.002879  -0.000534
    16  H   -0.000582  -0.000012   0.000002  -0.002759  -0.001600   0.003595
    17  H   -0.000429  -0.002902  -0.001728  -0.000007   0.000002  -0.000015
    18  H   -0.005870   0.002033  -0.003579   0.000003  -0.000006  -0.000288
    19  H    0.649586  -0.000012  -0.000033  -0.000006  -0.000034  -0.000008
    20  H   -0.000012   0.640233  -0.023872   0.000266   0.000004   0.000000
    21  H   -0.000033  -0.023872   0.642762   0.000003  -0.000035   0.000002
    22  H   -0.000006   0.000266   0.000003   0.639998  -0.022642  -0.000030
    23  H   -0.000034   0.000004  -0.000035  -0.022642   0.630632   0.000043
    24  H   -0.000008   0.000000   0.000002  -0.000030   0.000043   0.613091
    25  H   -0.001333  -0.000005   0.000001   0.000024  -0.000004   0.000000
    26  H    0.000026   0.000001   0.000001   0.000000   0.000000   0.000000
    27  H    0.000063   0.000000   0.000000   0.000000   0.000000   0.000000
    28  H    0.000069   0.000000   0.000000   0.000000   0.000000   0.000000
    29  H   -0.000002  -0.000837   0.000028   0.000007   0.000000   0.000000
    30  H    0.000006  -0.000299   0.000004  -0.000561   0.000016   0.000000
    31  H   -0.000032   0.000031   0.000000   0.000012   0.000000   0.000000
             25         26         27         28         29         30
     1  C    0.000000   0.000000   0.000000   0.000000   0.000001   0.000002
     2  C   -0.000001   0.000000   0.000000   0.000000   0.000002  -0.000011
     3  C   -0.003891  -0.000003   0.000026  -0.000013  -0.000003   0.000086
     4  C    0.001049  -0.000588   0.000049   0.000008   0.000011   0.000022
     5  C   -0.023432  -0.001356  -0.002655   0.001167  -0.001183  -0.001533
     6  C   -0.000016   0.000010   0.000000   0.000000  -0.001072  -0.000187
     7  C    0.000059   0.000000   0.000000   0.000000   0.000028  -0.001114
     8  O    0.000020   0.000000   0.000000   0.000000   0.000000  -0.000001
     9  C    0.381771  -0.020174  -0.020030  -0.019733  -0.020670  -0.019989
    10  C   -0.024771   0.382052   0.382354   0.382418  -0.002694   0.001374
    11  C   -0.025122  -0.002389   0.001330  -0.002284   0.382898   0.383332
    12  H    0.000000   0.000000   0.000000   0.000000   0.000000   0.000000
    13  H    0.000000   0.000000   0.000000   0.000000   0.000000   0.000000
    14  H    0.000000   0.000000   0.000000   0.000000   0.000000   0.000001
    15  H    0.000000   0.000000   0.000000   0.000000   0.000000  -0.000001
    16  H    0.000181   0.000000   0.000004  -0.000002   0.000001   0.000047
    17  H    0.000030  -0.000374   0.000036  -0.000012  -0.000036   0.000020
    18  H   -0.000031  -0.000017  -0.000007   0.000001  -0.000003  -0.000004
    19  H   -0.001333   0.000026   0.000063   0.000069  -0.000002   0.000006
    20  H   -0.000005   0.000001   0.000000   0.000000  -0.000837  -0.000299
    21  H    0.000001   0.000001   0.000000   0.000000   0.000028   0.000004
    22  H    0.000024   0.000000   0.000000   0.000000   0.000007  -0.000561
    23  H   -0.000004   0.000000   0.000000   0.000000   0.000000   0.000016
    24  H    0.000000   0.000000   0.000000   0.000000   0.000000   0.000000
    25  H    0.652427   0.001921  -0.002113  -0.002819   0.001959  -0.001884
    26  H    0.001921   0.632210  -0.021731  -0.022018   0.000366   0.000012
    27  H   -0.002113  -0.021731   0.630938  -0.021808   0.000019  -0.000038
    28  H   -0.002819  -0.022018  -0.021808   0.630962  -0.000021   0.000029
    29  H    0.001959   0.000366   0.000019  -0.000021   0.630258  -0.021448
    30  H   -0.001884   0.000012  -0.000038   0.000029  -0.021448   0.630146
    31  H   -0.003060  -0.000011   0.000033   0.000039  -0.022232  -0.022287
             31
     1  C    0.000000
     2  C    0.000000
     3  C   -0.000002
     4  C    0.000002
     5  C    0.001088
     6  C    0.000018
     7  C    0.000008
     8  O    0.000000
     9  C   -0.019974
    10  C   -0.002498
    11  C    0.381961
    12  H    0.000000
    13  H    0.000000
    14  H    0.000000
    15  H    0.000000
    16  H   -0.000010
    17  H   -0.000011
    18  H    0.000000
    19  H   -0.000032
    20  H    0.000031
    21  H    0.000000
    22  H    0.000012
    23  H    0.000000
    24  H    0.000000
    25  H   -0.003060
    26  H   -0.000011
    27  H    0.000033
    28  H    0.000039
    29  H   -0.022232
    30  H   -0.022287
    31  H    0.631502
 Mulliken atomic charges:
              1
     1  C   -0.171218
     2  C   -0.025998
     3  C    0.073635
     4  C   -0.106655
     5  C   -0.044825
     6  C   -0.103686
     7  C   -0.114609
     8  O   -0.313993
     9  C   -0.019848
    10  C   -0.172551
    11  C   -0.177362
    12  H    0.055204
    13  H    0.054251
    14  H    0.053644
    15  H    0.041740
    16  H    0.059470
    17  H    0.055259
    18  H    0.042919
    19  H    0.055315
    20  H    0.052034
    21  H    0.049926
    22  H    0.051316
    23  H    0.059274
    24  H    0.173799
    25  H    0.049041
    26  H    0.052062
    27  H    0.053531
    28  H    0.054020
    29  H    0.054624
    30  H    0.054258
    31  H    0.055424
 Sum of Mulliken atomic charges =   0.00000
 Mulliken charges with hydrogens summed into heavy atoms:
              1
     1  C   -0.008119
     2  C    0.015742
     3  C    0.133105
     4  C   -0.008477
     5  C    0.010489
     6  C   -0.001726
     7  C   -0.004020
     8  O   -0.140194
     9  C    0.029194
    10  C   -0.012938
    11  C   -0.013057
 Sum of Mulliken charges with hydrogens summed into heavy atoms =   0.00000
 Electronic spatial extent (au):  <R**2>=           2015.3433
 Charge=              0.0000 electrons
 Dipole moment (field-independent basis, Debye):
    X=             -0.0536    Y=             -1.4363    Z=              0.5164  Tot=              1.5273
 Quadrupole moment (field-independent basis, Debye-Ang):
   XX=            -67.3487   YY=            -73.9235   ZZ=            -65.8691
   XY=             -0.3953   XZ=              1.3854   YZ=              1.3451
 Traceless Quadrupole moment (field-independent basis, Debye-Ang):
   XX=              1.6984   YY=             -4.8764   ZZ=              3.1780
   XY=             -0.3953   XZ=              1.3854   YZ=              1.3451
 Octapole moment (field-independent basis, Debye-Ang**2):
  XXX=              4.3037  YYY=             -6.9161  ZZZ=              1.0999  XYY=             -2.8275
  XXY=              6.5747  XXZ=             -0.0990  XZZ=              2.6202  YZZ=              7.4724
  YYZ=              4.3789  XYZ=              1.7595
 Hexadecapole moment (field-independent basis, Debye-Ang**3):
 XXXX=          -1579.4087 YYYY=           -659.4795 ZZZZ=           -384.5774 XXXY=             19.2123
 XXXZ=             11.4055 YYYX=             -2.0522 YYYZ=              8.8825 ZZZX=              4.4915
 ZZZY=              1.8832 XXYY=           -360.2565 XXZZ=           -320.1555 YYZZ=           -153.3251
 XXYZ=              1.8542 YYXZ=              4.9363 ZZXY=              5.5410
 N-N= 6.994041604476D+02 E-N=-2.470598639541D+03  KE= 4.555746163584D+02
 ******************************Gaussian NBO Version 3.1******************************
             N A T U R A L   A T O M I C   O R B I T A L   A N D
          N A T U R A L   B O N D   O R B I T A L   A N A L Y S I S
 ******************************Gaussian NBO Version 3.1******************************
       /RESON  / : Allow strongly delocalized NBO set
       /NLMO   / : Form Natural Localized Molecular Orbitals
       /NMR /    : Analyze NMR Sheilding Tensor 

 Analyzing the SCF density

 Job title: comment                                                         

 Storage needed:     19864 in NPA,     23691 in NBO,     45933 in NLMO (  33549317 available)


 NATURAL POPULATIONS:  Natural atomic orbital occupancies 
                                                          
   NAO  Atom  No  lang   Type(AO)    Occupancy      Energy
 ----------------------------------------------------------
     1    C    1  S      Cor( 1S)     1.99997     -10.96771
     2    C    1  S      Val( 2S)     1.07976      -0.18408
     3    C    1  px     Val( 2p)     1.00704       0.08322
     4    C    1  py     Val( 2p)     1.01400       0.08407
     5    C    1  pz     Val( 2p)     1.02536       0.08212

     6    C    2  S      Cor( 1S)     1.99997     -10.99191
     7    C    2  S      Val( 2S)     1.07773      -0.19410
     8    C    2  px     Val( 2p)     0.96190       0.10404
     9    C    2  py     Val( 2p)     0.97440       0.10067
    10    C    2  pz     Val( 2p)     0.97311       0.10237

    11    C    3  S      Cor( 1S)     1.99989     -11.03342
    12    C    3  S      Val( 2S)     1.09176      -0.21807
    13    C    3  px     Val( 2p)     0.94664       0.09826
    14    C    3  py     Val( 2p)     0.86695       0.11515
    15    C    3  pz     Val( 2p)     0.95338       0.09001

    16    C    4  S      Cor( 1S)     1.99995     -10.98052
    17    C    4  S      Val( 2S)     1.08436      -0.19524
    18    C    4  px     Val( 2p)     0.99458       0.09018
    19    C    4  py     Val( 2p)     0.99798       0.09061
    20    C    4  pz     Val( 2p)     0.99159       0.08711

    21    C    5  S      Cor( 1S)     1.99995     -10.98987
    22    C    5  S      Val( 2S)     1.10570      -0.21611
    23    C    5  px     Val( 2p)     0.96528       0.10118
    24    C    5  py     Val( 2p)     0.98678       0.09304
    25    C    5  pz     Val( 2p)     0.96616       0.10375

    26    C    6  S      Cor( 1S)     1.99996     -10.97614
    27    C    6  S      Val( 2S)     1.08195      -0.18898
    28    C    6  px     Val( 2p)     0.98251       0.09400
    29    C    6  py     Val( 2p)     0.99240       0.09389
    30    C    6  pz     Val( 2p)     1.01060       0.08913

    31    C    7  S      Cor( 1S)     1.99996     -10.97449
    32    C    7  S      Val( 2S)     1.09149      -0.19647
    33    C    7  px     Val( 2p)     1.00006       0.08783
    34    C    7  py     Val( 2p)     1.00816       0.08821
    35    C    7  pz     Val( 2p)     0.99239       0.09027

    36    O    8  S      Cor( 1S)     1.99999     -20.13718
    37    O    8  S      Val( 2S)     1.75166      -0.99561
    38    O    8  px     Val( 2p)     1.80141      -0.29491
    39    O    8  py     Val( 2p)     1.46010      -0.16762
    40    O    8  pz     Val( 2p)     1.32212      -0.10012

    41    C    9  S      Cor( 1S)     1.99996     -10.99390
    42    C    9  S      Val( 2S)     1.08545      -0.19929
    43    C    9  px     Val( 2p)     0.95384       0.10448
    44    C    9  py     Val( 2p)     0.96516       0.11055
    45    C    9  pz     Val( 2p)     0.97393       0.10328

    46    C   10  S      Cor( 1S)     1.99997     -10.96535
    47    C   10  S      Val( 2S)     1.08221      -0.18422
    48    C   10  px     Val( 2p)     1.00161       0.08493
    49    C   10  py     Val( 2p)     1.02763       0.08427
    50    C   10  pz     Val( 2p)     1.01646       0.08498

    51    C   11  S      Cor( 1S)     1.99997     -10.96664
    52    C   11  S      Val( 2S)     1.07893      -0.18237
    53    C   11  px     Val( 2p)     1.03103       0.07922
    54    C   11  py     Val( 2p)     1.00137       0.08493
    55    C   11  pz     Val( 2p)     1.02280       0.08215

    56    H   12  S      Val( 1S)     0.96227       0.07335

    57    H   13  S      Val( 1S)     0.96312       0.07238

    58    H   14  S      Val( 1S)     0.96373       0.07190

    59    H   15  S      Val( 1S)     0.98172       0.05736

    60    H   16  S      Val( 1S)     0.97623       0.05927

    61    H   17  S      Val( 1S)     0.96582       0.06985

    62    H   18  S      Val( 1S)     0.97721       0.05927

    63    H   19  S      Val( 1S)     0.97005       0.06782

    64    H   20  S      Val( 1S)     0.96921       0.07267

    65    H   21  S      Val( 1S)     0.97028       0.06726

    66    H   22  S      Val( 1S)     0.96893       0.07152

    67    H   23  S      Val( 1S)     0.96131       0.07452

    68    H   24  S      Val( 1S)     0.81429       0.07888

    69    H   25  S      Val( 1S)     0.97642       0.06499

    70    H   26  S      Val( 1S)     0.96559       0.07393

    71    H   27  S      Val( 1S)     0.96411       0.07471

    72    H   28  S      Val( 1S)     0.96339       0.07345

    73    H   29  S      Val( 1S)     0.96243       0.07444

    74    H   30  S      Val( 1S)     0.96334       0.07697

    75    H   31  S      Val( 1S)     0.96127       0.07289


 Summary of Natural Population Analysis:                  
                                                          
                                       Natural Population 
                Natural  -----------------------------------------------
    Atom  No    Charge         Core      Valence    Rydberg      Total
 -----------------------------------------------------------------------
      C    1   -0.12614      1.99997     4.12616    0.00000     6.12614
      C    2    0.01290      1.99997     3.98714    0.00000     5.98710
      C    3    0.14138      1.99989     3.85873    0.00000     5.85862
      C    4   -0.06846      1.99995     4.06850    0.00000     6.06846
      C    5   -0.02387      1.99995     4.02393    0.00000     6.02387
      C    6   -0.06741      1.99996     4.06745    0.00000     6.06741
      C    7   -0.09206      1.99996     4.09210    0.00000     6.09206
      O    8   -0.33528      1.99999     6.33529    0.00000     8.33528
      C    9    0.02165      1.99996     3.97839    0.00000     5.97835
      C   10   -0.12787      1.99997     4.12790    0.00000     6.12787
      C   11   -0.13411      1.99997     4.13414    0.00000     6.13411
      H   12    0.03773      0.00000     0.96227    0.00000     0.96227
      H   13    0.03688      0.00000     0.96312    0.00000     0.96312
      H   14    0.03627      0.00000     0.96373    0.00000     0.96373
      H   15    0.01828      0.00000     0.98172    0.00000     0.98172
      H   16    0.02377      0.00000     0.97623    0.00000     0.97623
      H   17    0.03418      0.00000     0.96582    0.00000     0.96582
      H   18    0.02279      0.00000     0.97721    0.00000     0.97721
      H   19    0.02995      0.00000     0.97005    0.00000     0.97005
      H   20    0.03079      0.00000     0.96921    0.00000     0.96921
      H   21    0.02972      0.00000     0.97028    0.00000     0.97028
      H   22    0.03107      0.00000     0.96893    0.00000     0.96893
      H   23    0.03869      0.00000     0.96131    0.00000     0.96131
      H   24    0.18571      0.00000     0.81429    0.00000     0.81429
      H   25    0.02358      0.00000     0.97642    0.00000     0.97642
      H   26    0.03441      0.00000     0.96559    0.00000     0.96559
      H   27    0.03589      0.00000     0.96411    0.00000     0.96411
      H   28    0.03661      0.00000     0.96339    0.00000     0.96339
      H   29    0.03757      0.00000     0.96243    0.00000     0.96243
      H   30    0.03666      0.00000     0.96334    0.00000     0.96334
      H   31    0.03873      0.00000     0.96127    0.00000     0.96127
 =======================================================================
   * Total *    0.00000     21.99954    66.00046    0.00000    88.00000

                                 Natural Population      
 --------------------------------------------------------
   Core                      21.99954 ( 99.9979% of  22)
   Valence                   66.00046 (100.0007% of  66)
   Natural Minimal Basis     88.00000 (100.0000% of  88)
   Natural Rydberg Basis      0.00000 (  0.0000% of  88)
 --------------------------------------------------------

    Atom  No          Natural Electron Configuration
 ----------------------------------------------------------------------------
      C    1      [core]2S( 1.08)2p( 3.05)
      C    2      [core]2S( 1.08)2p( 2.91)
      C    3      [core]2S( 1.09)2p( 2.77)
      C    4      [core]2S( 1.08)2p( 2.98)
      C    5      [core]2S( 1.11)2p( 2.92)
      C    6      [core]2S( 1.08)2p( 2.99)
      C    7      [core]2S( 1.09)2p( 3.00)
      O    8      [core]2S( 1.75)2p( 4.58)
      C    9      [core]2S( 1.09)2p( 2.89)
      C   10      [core]2S( 1.08)2p( 3.05)
      C   11      [core]2S( 1.08)2p( 3.06)
      H   12            1S( 0.96)
      H   13            1S( 0.96)
      H   14            1S( 0.96)
      H   15            1S( 0.98)
      H   16            1S( 0.98)
      H   17            1S( 0.97)
      H   18            1S( 0.98)
      H   19            1S( 0.97)
      H   20            1S( 0.97)
      H   21            1S( 0.97)
      H   22            1S( 0.97)
      H   23            1S( 0.96)
      H   24            1S( 0.81)
      H   25            1S( 0.98)
      H   26            1S( 0.97)
      H   27            1S( 0.96)
      H   28            1S( 0.96)
      H   29            1S( 0.96)
      H   30            1S( 0.96)
      H   31            1S( 0.96)


 NATURAL BOND ORBITAL ANALYSIS:

                       Occupancies       Lewis Structure    Low   High
           Occ.    -------------------  -----------------   occ   occ
  Cycle   Thresh.   Lewis   Non-Lewis     CR  BD  3C  LP    (L)   (NL)   Dev
 =============================================================================
   1(1)    1.90    87.63207   0.36793     11  31   0   2     0      0    0.02
 -----------------------------------------------------------------------------

 Structure accepted: No low occupancy Lewis orbitals

 --------------------------------------------------------
   Core                     21.99954 ( 99.998% of  22)
   Valence Lewis            65.63254 ( 99.443% of  66)
  ==================       ============================
   Total Lewis              87.63207 ( 99.582% of  88)
  -----------------------------------------------------
   Valence non-Lewis         0.36793 (  0.418% of  88)
   Rydberg non-Lewis         0.00000 (  0.000% of  88)
  ==================       ============================
   Total non-Lewis           0.36793 (  0.418% of  88)
 --------------------------------------------------------


       (Occupancy)   Bond orbital/ Coefficients/ Hybrids
 ---------------------------------------------------------------------------------
     1. (1.98863) BD ( 1) C   1 - C   2  
                ( 50.73%)   0.7123* C   1 s( 25.72%)p 2.89( 74.28%)
                                            0.0001  0.5071 -0.6448  0.5117  0.2553
                ( 49.27%)   0.7019* C   2 s( 25.17%)p 2.97( 74.83%)
                                            0.0000  0.5017  0.6310 -0.5258 -0.2716
     2. (1.99500) BD ( 1) C   1 - H  12  
                ( 51.90%)   0.7204* C   1 s( 24.72%)p 3.05( 75.28%)
                                            0.0000  0.4972  0.6002  0.4702 -0.4141
                ( 48.10%)   0.6936* H  12 s(100.00%)
                                            1.0000
     3. (1.99499) BD ( 1) C   1 - H  13  
                ( 51.86%)   0.7201* C   1 s( 24.73%)p 3.04( 75.27%)
                                            0.0000  0.4973  0.3625 -0.3804  0.6904
                ( 48.14%)   0.6939* H  13 s(100.00%)
                                            1.0000
     4. (1.99540) BD ( 1) C   1 - H  14  
                ( 51.86%)   0.7201* C   1 s( 24.84%)p 3.03( 75.16%)
                                            0.0000  0.4984 -0.3043 -0.6102 -0.5355
                ( 48.14%)   0.6939* H  14 s(100.00%)
                                            1.0000
     5. (1.98559) BD ( 1) C   2 - C   6  
                ( 49.63%)   0.7045* C   2 s( 25.04%)p 2.99( 74.96%)
                                            0.0000  0.5004 -0.5991 -0.4600  0.4232
                ( 50.37%)   0.7097* C   6 s( 25.38%)p 2.94( 74.62%)
                                            0.0001  0.5038  0.5848  0.4651 -0.4335
     6. (1.98504) BD ( 1) C   2 - C   7  
                ( 49.64%)   0.7046* C   2 s( 25.08%)p 2.99( 74.92%)
                                            0.0000  0.5008 -0.3637  0.3927 -0.6802
                ( 50.36%)   0.7096* C   7 s( 25.15%)p 2.98( 74.85%)
                                            0.0001  0.5015  0.3387 -0.3967  0.6902
     7. (1.98407) BD ( 1) C   2 - H  15  
                ( 50.85%)   0.7131* C   2 s( 24.70%)p 3.05( 75.30%)
                                            0.0000  0.4970  0.3327  0.5981  0.5334
                ( 49.15%)   0.7011* H  15 s(100.00%)
                                            1.0000
     8. (1.98195) BD ( 1) C   3 - C   5  
                ( 50.00%)   0.7071* C   3 s( 26.00%)p 2.85( 74.00%)
                                            0.0001  0.5099 -0.5684 -0.4084  0.5002
                ( 50.00%)   0.7071* C   5 s( 25.25%)p 2.96( 74.75%)
                                            0.0000  0.5025  0.6000  0.3263 -0.5301
     9. (1.98786) BD ( 1) C   3 - C   7  
                ( 49.40%)   0.7029* C   3 s( 26.01%)p 2.85( 73.99%)
                                            0.0000  0.5100  0.6564 -0.5195 -0.1979
                ( 50.60%)   0.7113* C   7 s( 25.30%)p 2.95( 74.70%)
                                            0.0000  0.5030 -0.6767  0.4798  0.2425
    10. (1.98782) BD ( 1) C   3 - O   8  
                ( 41.04%)   0.6407* C   3 s( 21.61%)p 3.63( 78.39%)
                                           -0.0001  0.4649  0.3210  0.6892  0.4537
                ( 58.96%)   0.7678* O   8 s( 16.08%)p 5.22( 83.92%)
                                            0.0000  0.4011 -0.3052 -0.7799 -0.3712
    11. (1.98626) BD ( 1) C   3 - H  16  
                ( 51.29%)   0.7162* C   3 s( 26.39%)p 2.79( 73.61%)
                                           -0.0001  0.5137 -0.3780  0.2973 -0.7105
                ( 48.71%)   0.6979* H  16 s(100.00%)
                                            1.0000
    12. (1.98548) BD ( 1) C   4 - C   5  
                ( 50.51%)   0.7107* C   4 s( 25.66%)p 2.90( 74.34%)
                                            0.0001  0.5065 -0.3504  0.4431 -0.6514
                ( 49.49%)   0.7035* C   5 s( 25.52%)p 2.92( 74.48%)
                                            0.0000  0.5052  0.3725 -0.5162  0.5827
    13. (1.99037) BD ( 1) C   4 - C   6  
                ( 50.11%)   0.7079* C   4 s( 25.42%)p 2.93( 74.58%)
                                            0.0000  0.5042  0.6520 -0.4867 -0.2896
                ( 49.89%)   0.7063* C   6 s( 25.33%)p 2.95( 74.67%)
                                            0.0000  0.5033 -0.6626  0.5040  0.2317
    14. (1.98870) BD ( 1) C   4 - H  17  
                ( 51.69%)   0.7189* C   4 s( 25.07%)p 2.99( 74.93%)
                                            0.0000  0.5007 -0.5994 -0.5039  0.3690
                ( 48.31%)   0.6951* H  17 s(100.00%)
                                            1.0000
    15. (1.98926) BD ( 1) C   4 - H  18  
                ( 51.09%)   0.7148* C   4 s( 23.85%)p 3.19( 76.15%)
                                            0.0000  0.4884  0.3048  0.5594  0.5964
                ( 48.91%)   0.6993* H  18 s(100.00%)
                                            1.0000
    16. (1.97974) BD ( 1) C   5 - C   9  
                ( 50.11%)   0.7079* C   5 s( 25.56%)p 2.91( 74.44%)
                                            0.0001  0.5055 -0.5854 -0.4413 -0.4549
                ( 49.89%)   0.7063* C   9 s( 25.58%)p 2.91( 74.42%)
                                            0.0001  0.5058  0.6518  0.3417  0.4502
    17. (1.98153) BD ( 1) C   5 - H  19  
                ( 51.32%)   0.7163* C   5 s( 23.67%)p 3.23( 76.33%)
                                            0.0000  0.4865 -0.3982  0.6575  0.4152
                ( 48.68%)   0.6977* H  19 s(100.00%)
                                            1.0000
    18. (1.99036) BD ( 1) C   6 - H  20  
                ( 51.60%)   0.7183* C   6 s( 24.77%)p 3.04( 75.23%)
                                            0.0000  0.4977 -0.2885 -0.6451 -0.5030
                ( 48.40%)   0.6957* H  20 s(100.00%)
                                            1.0000
    19. (1.98941) BD ( 1) C   6 - H  21  
                ( 51.45%)   0.7173* C   6 s( 24.53%)p 3.08( 75.47%)
                                            0.0000  0.4952  0.3684 -0.3370  0.7109
                ( 48.55%)   0.6968* H  21 s(100.00%)
                                            1.0000
    20. (1.98788) BD ( 1) C   7 - H  22  
                ( 51.54%)   0.7179* C   7 s( 24.81%)p 3.03( 75.19%)
                                            0.0000  0.4981 -0.2576 -0.5939 -0.5769
                ( 48.46%)   0.6962* H  22 s(100.00%)
                                            1.0000
    21. (1.98814) BD ( 1) C   7 - H  23  
                ( 51.87%)   0.7202* C   7 s( 24.74%)p 3.04( 75.26%)
                                            0.0000  0.4974  0.6008  0.5095 -0.3634
                ( 48.13%)   0.6937* H  23 s(100.00%)
                                            1.0000
    22. (1.98964) BD ( 1) O   8 - H  24  
                ( 59.36%)   0.7705* O   8 s( 16.84%)p 4.94( 83.16%)
                                            0.0000  0.4104  0.3300 -0.2972  0.7964
                ( 40.64%)   0.6375* H  24 s(100.00%)
                                            1.0000
    23. (1.98912) BD ( 1) C   9 - C  10  
                ( 49.01%)   0.7000* C   9 s( 24.58%)p 3.07( 75.42%)
                                            0.0000  0.4958 -0.6879 -0.1060  0.5194
                ( 50.99%)   0.7141* C  10 s( 25.73%)p 2.89( 74.27%)
                                            0.0001  0.5073  0.7108  0.0953 -0.4778
    24. (1.99047) BD ( 1) C   9 - C  11  
                ( 49.01%)   0.7001* C   9 s( 25.59%)p 2.91( 74.41%)
                                            0.0000  0.5058  0.2341 -0.7626 -0.3284
                ( 50.99%)   0.7141* C  11 s( 25.95%)p 2.85( 74.05%)
                                            0.0001  0.5094 -0.1803  0.7597  0.3618
    25. (1.98360) BD ( 1) C   9 - H  25  
                ( 51.06%)   0.7146* C   9 s( 24.25%)p 3.12( 75.75%)
                                            0.0000  0.4925 -0.2172  0.5390 -0.6479
                ( 48.94%)   0.6996* H  25 s(100.00%)
                                            1.0000
    26. (1.99500) BD ( 1) C  10 - H  26  
                ( 51.77%)   0.7195* C  10 s( 24.90%)p 3.02( 75.10%)
                                            0.0000  0.4990  0.1510 -0.5617  0.6424
                ( 48.23%)   0.6945* H  26 s(100.00%)
                                            1.0000
    27. (1.99508) BD ( 1) C  10 - H  27  
                ( 51.82%)   0.7198* C  10 s( 24.72%)p 3.05( 75.28%)
                                            0.0000  0.4972 -0.2307  0.7654  0.3373
                ( 48.18%)   0.6942* H  27 s(100.00%)
                                            1.0000
    28. (1.99471) BD ( 1) C  10 - H  28  
                ( 51.83%)   0.7199* C  10 s( 24.65%)p 3.06( 75.35%)
                                            0.0000  0.4965 -0.6471 -0.2993 -0.4952
                ( 48.17%)   0.6941* H  28 s(100.00%)
                                            1.0000
    29. (1.99437) BD ( 1) C  11 - H  29  
                ( 51.91%)   0.7205* C  11 s( 24.86%)p 3.02( 75.14%)
                                            0.0000  0.4986  0.1525 -0.5912  0.6153
                ( 48.09%)   0.6934* H  29 s(100.00%)
                                            1.0000
    30. (1.99392) BD ( 1) C  11 - H  30  
                ( 51.87%)   0.7202* C  11 s( 24.95%)p 3.01( 75.05%)
                                            0.0000  0.4995  0.6980  0.0726 -0.5079
                ( 48.13%)   0.6938* H  30 s(100.00%)
                                            1.0000
    31. (1.99395) BD ( 1) C  11 - H  31  
                ( 51.92%)   0.7206* C  11 s( 24.24%)p 3.13( 75.76%)
                                            0.0000  0.4923 -0.6761 -0.2609 -0.4822
                ( 48.08%)   0.6934* H  31 s(100.00%)
                                            1.0000
    32. (1.99997) CR ( 1) C   1           s(100.00%)
                                            1.0000  0.0000  0.0001 -0.0001  0.0000
    33. (1.99997) CR ( 1) C   2           s(100.00%)
                                            1.0000  0.0000  0.0001  0.0000  0.0000
    34. (1.99989) CR ( 1) C   3           s(100.00%)
                                            1.0000  0.0000  0.0000  0.0001  0.0000
    35. (1.99995) CR ( 1) C   4           s(100.00%)
                                            1.0000  0.0000  0.0000  0.0000  0.0001
    36. (1.99995) CR ( 1) C   5           s(100.00%)
                                            1.0000  0.0000  0.0000  0.0001  0.0000
    37. (1.99996) CR ( 1) C   6           s(100.00%)
                                            1.0000  0.0000  0.0000  0.0000  0.0001
    38. (1.99996) CR ( 1) C   7           s(100.00%)
                                            1.0000  0.0000  0.0000  0.0001 -0.0001
    39. (1.99999) CR ( 1) O   8           s(100.00%)
                                            1.0000  0.0000  0.0000  0.0000  0.0000
    40. (1.99996) CR ( 1) C   9           s(100.00%)
                                            1.0000  0.0000 -0.0001  0.0000  0.0000
    41. (1.99997) CR ( 1) C  10           s(100.00%)
                                            1.0000  0.0000 -0.0001  0.0000  0.0000
    42. (1.99997) CR ( 1) C  11           s(100.00%)
                                            1.0000  0.0000  0.0000 -0.0001  0.0000
    43. (1.99309) LP ( 1) O   8           s( 67.06%)p 0.49( 32.94%)
                                            0.0000  0.8189 -0.0274  0.5327 -0.2119
    44. (1.97610) LP ( 2) O   8           s(  0.01%)p99.99( 99.99%)
                                            0.0000  0.0105  0.8928 -0.1404 -0.4278
    45. (0.00997) BD*( 1) C   1 - C   2  
                ( 49.27%)   0.7019* C   1 s( 25.72%)p 2.89( 74.28%)
                                           -0.0001 -0.5071  0.6448 -0.5117 -0.2553
                ( 50.73%)  -0.7123* C   2 s( 25.17%)p 2.97( 74.83%)
                                            0.0000 -0.5017 -0.6310  0.5258  0.2716
    46. (0.00511) BD*( 1) C   1 - H  12  
                ( 48.10%)   0.6936* C   1 s( 24.72%)p 3.05( 75.28%)
                                            0.0000 -0.4972 -0.6002 -0.4702  0.4141
                ( 51.90%)  -0.7204* H  12 s(100.00%)
                                           -1.0000
    47. (0.00512) BD*( 1) C   1 - H  13  
                ( 48.14%)   0.6939* C   1 s( 24.73%)p 3.04( 75.27%)
                                            0.0000 -0.4973 -0.3625  0.3804 -0.6904
                ( 51.86%)  -0.7201* H  13 s(100.00%)
                                           -1.0000
    48. (0.00588) BD*( 1) C   1 - H  14  
                ( 48.14%)   0.6939* C   1 s( 24.84%)p 3.03( 75.16%)
                                            0.0000 -0.4984  0.3043  0.6102  0.5355
                ( 51.86%)  -0.7201* H  14 s(100.00%)
                                           -1.0000
    49. (0.01592) BD*( 1) C   2 - C   6  
                ( 50.37%)   0.7097* C   2 s( 25.04%)p 2.99( 74.96%)
                                            0.0000  0.5004 -0.5991 -0.4600  0.4232
                ( 49.63%)  -0.7045* C   6 s( 25.38%)p 2.94( 74.62%)
                                            0.0001  0.5038  0.5848  0.4651 -0.4335
    50. (0.01619) BD*( 1) C   2 - C   7  
                ( 50.36%)   0.7096* C   2 s( 25.08%)p 2.99( 74.92%)
                                            0.0000  0.5008 -0.3637  0.3927 -0.6802
                ( 49.64%)  -0.7046* C   7 s( 25.15%)p 2.98( 74.85%)
                                            0.0001  0.5015  0.3387 -0.3967  0.6902
    51. (0.01284) BD*( 1) C   2 - H  15  
                ( 49.15%)   0.7011* C   2 s( 24.70%)p 3.05( 75.30%)
                                            0.0000 -0.4970 -0.3327 -0.5981 -0.5334
                ( 50.85%)  -0.7131* H  15 s(100.00%)
                                           -1.0000
    52. (0.03182) BD*( 1) C   3 - C   5  
                ( 50.00%)   0.7071* C   3 s( 26.00%)p 2.85( 74.00%)
                                            0.0001  0.5099 -0.5684 -0.4084  0.5002
                ( 50.00%)  -0.7071* C   5 s( 25.25%)p 2.96( 74.75%)
                                            0.0000  0.5025  0.6000  0.3263 -0.5301
    53. (0.02716) BD*( 1) C   3 - C   7  
                ( 50.60%)   0.7113* C   3 s( 26.01%)p 2.85( 73.99%)
                                            0.0000  0.5100  0.6564 -0.5195 -0.1979
                ( 49.40%)  -0.7029* C   7 s( 25.30%)p 2.95( 74.70%)
                                            0.0000  0.5030 -0.6767  0.4798  0.2425
    54. (0.02220) BD*( 1) C   3 - O   8  
                ( 58.96%)   0.7678* C   3 s( 21.61%)p 3.63( 78.39%)
                                           -0.0001  0.4649  0.3210  0.6892  0.4537
                ( 41.04%)  -0.6407* O   8 s( 16.08%)p 5.22( 83.92%)
                                            0.0000  0.4011 -0.3052 -0.7799 -0.3712
    55. (0.01715) BD*( 1) C   3 - H  16  
                ( 48.71%)   0.6979* C   3 s( 26.39%)p 2.79( 73.61%)
                                            0.0001 -0.5137  0.3780 -0.2973  0.7105
                ( 51.29%)  -0.7162* H  16 s(100.00%)
                                           -1.0000
    56. (0.01776) BD*( 1) C   4 - C   5  
                ( 49.49%)   0.7035* C   4 s( 25.66%)p 2.90( 74.34%)
                                           -0.0001 -0.5065  0.3504 -0.4431  0.6514
                ( 50.51%)  -0.7107* C   5 s( 25.52%)p 2.92( 74.48%)
                                            0.0000 -0.5052 -0.3725  0.5162 -0.5827
    57. (0.01257) BD*( 1) C   4 - C   6  
                ( 49.89%)   0.7063* C   4 s( 25.42%)p 2.93( 74.58%)
                                            0.0000 -0.5042 -0.6520  0.4867  0.2896
                ( 50.11%)  -0.7079* C   6 s( 25.33%)p 2.95( 74.67%)
                                            0.0000 -0.5033  0.6626 -0.5040 -0.2317
    58. (0.00969) BD*( 1) C   4 - H  17  
                ( 48.31%)   0.6951* C   4 s( 25.07%)p 2.99( 74.93%)
                                            0.0000 -0.5007  0.5994  0.5039 -0.3690
                ( 51.69%)  -0.7189* H  17 s(100.00%)
                                           -1.0000
    59. (0.00853) BD*( 1) C   4 - H  18  
                ( 48.91%)   0.6993* C   4 s( 23.85%)p 3.19( 76.15%)
                                            0.0000 -0.4884 -0.3048 -0.5594 -0.5964
                ( 51.09%)  -0.7148* H  18 s(100.00%)
                                           -1.0000
    60. (0.02285) BD*( 1) C   5 - C   9  
                ( 49.89%)   0.7063* C   5 s( 25.56%)p 2.91( 74.44%)
                                           -0.0001 -0.5055  0.5854  0.4413  0.4549
                ( 50.11%)  -0.7079* C   9 s( 25.58%)p 2.91( 74.42%)
                                           -0.0001 -0.5058 -0.6518 -0.3417 -0.4502
    61. (0.01044) BD*( 1) C   5 - H  19  
                ( 48.68%)   0.6977* C   5 s( 23.67%)p 3.23( 76.33%)
                                            0.0000 -0.4865  0.3982 -0.6575 -0.4152
                ( 51.32%)  -0.7163* H  19 s(100.00%)
                                           -1.0000
    62. (0.01144) BD*( 1) C   6 - H  20  
                ( 48.40%)   0.6957* C   6 s( 24.77%)p 3.04( 75.23%)
                                            0.0000 -0.4977  0.2885  0.6451  0.5030
                ( 51.60%)  -0.7183* H  20 s(100.00%)
                                           -1.0000
    63. (0.00850) BD*( 1) C   6 - H  21  
                ( 48.55%)   0.6968* C   6 s( 24.53%)p 3.08( 75.47%)
                                            0.0000 -0.4952 -0.3684  0.3370 -0.7109
                ( 51.45%)  -0.7173* H  21 s(100.00%)
                                           -1.0000
    64. (0.01073) BD*( 1) C   7 - H  22  
                ( 48.46%)   0.6962* C   7 s( 24.81%)p 3.03( 75.19%)
                                            0.0000 -0.4981  0.2576  0.5939  0.5769
                ( 51.54%)  -0.7179* H  22 s(100.00%)
                                           -1.0000
    65. (0.00868) BD*( 1) C   7 - H  23  
                ( 48.13%)   0.6937* C   7 s( 24.74%)p 3.04( 75.26%)
                                            0.0000 -0.4974 -0.6008 -0.5095  0.3634
                ( 51.87%)  -0.7202* H  23 s(100.00%)
                                           -1.0000
    66. (0.00971) BD*( 1) O   8 - H  24  
                ( 40.64%)   0.6375* O   8 s( 16.84%)p 4.94( 83.16%)
                                            0.0000 -0.4104 -0.3300  0.2972 -0.7964
                ( 59.36%)  -0.7705* H  24 s(100.00%)
                                           -1.0000
    67. (0.01024) BD*( 1) C   9 - C  10  
                ( 50.99%)   0.7141* C   9 s( 24.58%)p 3.07( 75.42%)
                                            0.0000  0.4958 -0.6879 -0.1060  0.5194
                ( 49.01%)  -0.7000* C  10 s( 25.73%)p 2.89( 74.27%)
                                            0.0001  0.5073  0.7108  0.0953 -0.4778
    68. (0.01090) BD*( 1) C   9 - C  11  
                ( 50.99%)   0.7141* C   9 s( 25.59%)p 2.91( 74.41%)
                                            0.0000  0.5058  0.2341 -0.7626 -0.3284
                ( 49.01%)  -0.7001* C  11 s( 25.95%)p 2.85( 74.05%)
                                            0.0001  0.5094 -0.1803  0.7597  0.3618
    69. (0.01105) BD*( 1) C   9 - H  25  
                ( 48.94%)   0.6996* C   9 s( 24.25%)p 3.12( 75.75%)
                                            0.0000 -0.4925  0.2172 -0.5390  0.6479
                ( 51.06%)  -0.7146* H  25 s(100.00%)
                                           -1.0000
    70. (0.00664) BD*( 1) C  10 - H  26  
                ( 48.23%)   0.6945* C  10 s( 24.90%)p 3.02( 75.10%)
                                            0.0000 -0.4990 -0.1510  0.5617 -0.6424
                ( 51.77%)  -0.7195* H  26 s(100.00%)
                                           -1.0000
    71. (0.00536) BD*( 1) C  10 - H  27  
                ( 48.18%)   0.6942* C  10 s( 24.72%)p 3.05( 75.28%)
                                            0.0000 -0.4972  0.2307 -0.7654 -0.3373
                ( 51.82%)  -0.7198* H  27 s(100.00%)
                                           -1.0000
    72. (0.00486) BD*( 1) C  10 - H  28  
[...]
 NLMO      Total    Paramagnetic  Diamagnetic   Paramagnetic  Diamagnetic
    8      -0.3469       -0.4164       0.0695        -1.1657       0.8188
    9      -0.3726       -0.1357      -0.2369        -1.2313       0.8588
   10      23.0042        6.6311      16.3731        12.3812      10.6230
   11       0.9246        0.4927       0.4319        -0.3732       1.2979
   17      -0.6837       -1.0390       0.3553        -1.7212       1.0375
   21      -0.3887       -0.8089       0.4202        -1.3591       0.9705
   22      26.2541       11.6533      14.6008        11.8069      14.4472
   39     271.1678       -0.0070     271.1748        -0.0024     271.1702
   43      33.3313        4.4861      28.8452        -4.1685      37.4999
   44      -1.4606      -39.9301      38.4695       -41.4032      39.9425
 Sum      351.4296      -19.0739     370.5035       -27.2365     378.6660

 Contributions to Isotropic shielding for atom    9 (   211.9342 ppm):
                         Standard Origin              Atomic Origin
 NLMO      Total    Paramagnetic  Diamagnetic   Paramagnetic  Diamagnetic
   11      -0.3460       -0.7535       0.4075        -1.2973       0.9512
   16       4.5662       -9.3818      13.9480        -3.2018       7.7680
   23      -2.7355       -4.5181       1.7826       -10.1944       7.4588
   24       0.2671       -7.1308       7.3979        -7.2624       7.5295
   25       4.9554       -2.1048       7.0602        -5.9241      10.8794
   26       1.1525       -0.2902       1.4428         0.1308       1.0217
   27       0.7406       -0.5694       1.3099        -0.2778       1.0184
   28       0.6307       -0.4496       1.0803        -0.3932       1.0240
   29       0.7570       -0.2523       1.0093        -0.2766       1.0336
   30       0.5695       -0.5364       1.1059        -0.4465       1.0159
   31       0.5889       -0.0944       0.6833        -0.4348       1.0237
   40     199.9261       -0.0018     199.9279         0.0022     199.9239
 Sum      211.0724      -26.0831     237.1555       -29.5758     240.6482

 Contributions to Isotropic shielding for atom   10 (   220.3022 ppm):
                         Standard Origin              Atomic Origin
 NLMO      Total    Paramagnetic  Diamagnetic   Paramagnetic  Diamagnetic
   17      -0.2577       -0.1466      -0.1111        -1.2027       0.9451
   23       4.9015      -11.9441      16.8456        -3.1061       8.0076
   24      -0.5175        0.0760      -0.5935        -1.2489       0.7314
   25       0.2832        0.1973       0.0860        -0.7517       1.0349
   26       6.1795       -4.4343      10.6138        -4.9475      11.1271
   27       4.6743       -3.0276       7.7018        -6.4345      11.1087
   28       4.6995        1.7351       2.9643        -6.4136      11.1131
   41     200.0748       -0.0043     200.0791         0.0025     200.0724
 Sum      220.0378      -17.5484     237.5862       -24.1025     244.1403

 Contributions to Isotropic shielding for atom   11 (   223.1887 ppm):
                         Standard Origin              Atomic Origin
 NLMO      Total    Paramagnetic  Diamagnetic   Paramagnetic  Diamagnetic
   23      -0.3202       -0.0690      -0.2512        -1.0261       0.7059
   24       3.2606       -8.6095      11.8701        -4.6990       7.9596
   25       0.3172       -0.1800       0.4972        -0.6893       1.0064
   29       6.7025       -4.2085      10.9109        -4.4391      11.1416
   30       6.8043       -6.2541      13.0585        -4.3209      11.1252
   31       5.7931        2.5483       3.2448        -5.2952      11.0883
   42     200.0793       -0.0016     200.0809         0.0011     200.0782
 Sum      222.6368      -16.7744     239.4112       -20.4685     243.1053

 Contributions to Isotropic shielding for atom   12 (    32.4385 ppm):
                         Standard Origin              Atomic Origin
 NLMO      Total    Paramagnetic  Diamagnetic   Paramagnetic  Diamagnetic
    1       1.3718       -0.3752       1.7470         0.3780       0.9939
    2      26.3153        0.1450      26.1703         0.4356      25.8797
    3       1.9031        2.2693      -0.3661         0.0619       1.8413
    4       1.9559        1.2941       0.6618         0.1138       1.8421
    6      -0.1108        0.5766      -0.6874        -1.0128       0.9020
 Sum       31.4353        3.9098      27.5255        -0.0236      31.4589

 Contributions to Isotropic shielding for atom   13 (    32.4941 ppm):
                         Standard Origin              Atomic Origin
 NLMO      Total    Paramagnetic  Diamagnetic   Paramagnetic  Diamagnetic
    1       1.3735       -0.3767       1.7502         0.3808       0.9927
    2       1.9105        2.2705      -0.3600         0.0670       1.8435
    3      26.3392        0.1438      26.1954         0.4367      25.9025
    4       1.9529        1.2982       0.6547         0.1115       1.8414
    5      -0.1224        0.5759      -0.6983        -1.0116       0.8892
 Sum       31.4537        3.9116      27.5421        -0.0157      31.4694

 Contributions to Isotropic shielding for atom   14 (    32.7354 ppm):
                         Standard Origin              Atomic Origin
 NLMO      Total    Paramagnetic  Diamagnetic   Paramagnetic  Diamagnetic
    1       1.6488       -1.2542       2.9030         0.7653       0.8835
    2       1.9612        1.5652       0.3960         0.1337       1.8275
    3       1.9606        1.5727       0.3879         0.1335       1.8271
    4      26.3182        0.3203      25.9979         0.4231      25.8951
 Sum       31.8887        2.2040      29.6847         1.4555      30.4332

 Contributions to Isotropic shielding for atom   15 (    33.1316 ppm):
                         Standard Origin              Atomic Origin
 NLMO      Total    Paramagnetic  Diamagnetic   Paramagnetic  Diamagnetic
    1       0.8521        2.2411      -1.3890        -0.1199       0.9720
    2       0.2653       -0.7448       1.0101        -0.6955       0.9608
    3       0.2619       -0.7507       1.0127        -0.6996       0.9615
    5       1.4480        0.5145       0.9335         0.5941       0.8539
    6       1.4138        0.4546       0.9592         0.5485       0.8653
    7      26.6075       -0.0219      26.6294         0.3990      26.2085
   10      -0.0635       -0.1783       0.1147        -1.1635       1.1000
 Sum       30.7852        1.5145      29.2707        -1.1369      31.9220

 Contributions to Isotropic shielding for atom   16 (    31.4738 ppm):
                         Standard Origin              Atomic Origin
 NLMO      Total    Paramagnetic  Diamagnetic   Paramagnetic  Diamagnetic
    8       1.0886        0.2417       0.8468         0.1203       0.9682
    9       0.8289        0.5431       0.2858        -0.2341       1.0630
   10       0.8377        1.2904      -0.4527        -1.2498       2.0876
   11      26.3880        0.4338      25.9542         0.8127      25.5753
   16      -0.0786       -0.1021       0.0235        -1.1827       1.1041
   20       0.1746       -0.2945       0.4692        -0.8498       1.0245
   25      -0.1897       -1.0567       0.8670        -0.9255       0.7358
 Sum       29.0495        1.0557      27.9937        -3.5090      32.5585

 Contributions to Isotropic shielding for atom   17 (    32.5289 ppm):
                         Standard Origin              Atomic Origin
 NLMO      Total    Paramagnetic  Diamagnetic   Paramagnetic  Diamagnetic
   12       1.2838        0.5476       0.7363         0.3167       0.9671
   13       1.1250        0.9447       0.1803         0.0707       1.0543
   14      26.2895        0.0533      26.2361         0.4209      25.8686
   15       2.0505        1.6119       0.4386         0.3093       1.7412
   16      -0.1244       -0.0185      -0.1059        -1.0530       0.9286
   26      -0.3271       -1.6045       1.2774        -0.8761       0.5490
 Sum       30.2973        1.5345      28.7627        -0.8115      31.1088

 Contributions to Isotropic shielding for atom   18 (    32.9542 ppm):
                         Standard Origin              Atomic Origin
 NLMO      Total    Paramagnetic  Diamagnetic   Paramagnetic  Diamagnetic
   10      -0.0347       -0.2218       0.1871        -1.0741       1.0394
   12       1.3364        0.5203       0.8161         0.2504       1.0859
   13       1.1549        0.9336       0.2213         0.0970       1.0579
   14       2.0806        1.6393       0.4413         0.2490       1.8315
   15      26.5827       -0.0072      26.5899         0.3918      26.1909
   17      -0.0458       -0.3348       0.2891        -1.1035       1.0577
 Sum       31.0741        2.5292      28.5449        -1.1893      32.2634

 Contributions to Isotropic shielding for atom   19 (    32.3023 ppm):
                         Standard Origin              Atomic Origin
 NLMO      Total    Paramagnetic  Diamagnetic   Paramagnetic  Diamagnetic
    8       1.2243        1.1312       0.0931         0.1683       1.0559
   10      -0.0940       -0.4301       0.3361        -1.6196       1.5256
   12       1.1707        1.0884       0.0823        -0.0475       1.2182
   15       0.0115       -0.4239       0.4354        -1.1254       1.1369
   16       1.0200        1.4618      -0.4418        -0.1671       1.1871
   17      26.3462       -0.1658      26.5120         0.4852      25.8609
   23      -0.0927       -0.4812       0.3885        -1.1607       1.0681
   27      -0.1431       -1.7137       1.5706        -1.0498       0.9067
 Sum       29.4429        0.4666      28.9763        -4.5166      33.9594

 Contributions to Isotropic shielding for atom   20 (    33.0021 ppm):
                         Standard Origin              Atomic Origin
 NLMO      Total    Paramagnetic  Diamagnetic   Paramagnetic  Diamagnetic
    4      -0.0561       -1.2209       1.1649        -0.9552       0.8992
    5       1.3020        0.5469       0.7551         0.4484       0.8536
   13       1.3626        0.0893       1.2733         0.4510       0.9116
   18      26.3878        0.1982      26.1896         0.4141      25.9737
   19       2.0063        1.6862       0.3201         0.2266       1.7797
   29      -0.3541       -1.1810       0.8269        -1.0082       0.6541
 Sum       30.6486        0.1188      30.5298        -0.4233      31.0719

 Contributions to Isotropic shielding for atom   21 (    32.6728 ppm):
                         Standard Origin              Atomic Origin
 NLMO      Total    Paramagnetic  Diamagnetic   Paramagnetic  Diamagnetic
    3      -0.0870       -1.3438       1.2568        -0.9712       0.8842
    5       1.0404        1.2921      -0.2517         0.1145       0.9259
   13       1.1840        0.9282       0.2558         0.1719       1.0121
   15       0.1780        0.0149       0.1631        -0.8833       1.0613
   18       2.0842        1.3277       0.7565         0.3027       1.7814
   19      26.4605       -0.0296      26.4901         0.4569      26.0036
 Sum       30.8600        2.1895      28.6706        -0.8085      31.6686

 Contributions to Isotropic shielding for atom   22 (    32.8009 ppm):
                         Standard Origin              Atomic Origin
 NLMO      Total    Paramagnetic  Diamagnetic   Paramagnetic  Diamagnetic
    4      -0.0565       -1.2270       1.1705        -0.9575       0.9010
    6       1.2960        0.5764       0.7197         0.4326       0.8635
    9       1.4558        0.2331       1.2227         0.6044       0.8514
   20      26.4191        0.2328      26.1863         0.4281      25.9911
   21       1.9797        1.6397       0.3400         0.1788       1.8009
 Sum       31.0942        1.4550      29.6392         0.6863      30.4079

 Contributions to Isotropic shielding for atom   23 (    32.0769 ppm):
                         Standard Origin              Atomic Origin
 NLMO      Total    Paramagnetic  Diamagnetic   Paramagnetic  Diamagnetic
    2      -0.0871       -1.3514       1.2643        -0.9737       0.8865
    6       0.9986        1.3225      -0.3239         0.0001       0.9986
    9       1.1560        0.8722       0.2837         0.2235       0.9324
   10      -0.0965       -0.0274      -0.0691        -1.6065       1.5100
   20       2.0430        1.2702       0.7728         0.2894       1.7536
   21      26.2069        0.0214      26.1856         0.4665      25.7404
 Sum       30.2208        2.1075      28.1134        -1.6006      31.8214

 Contributions to Isotropic shielding for atom   24 (    34.5354 ppm):
                         Standard Origin              Atomic Origin
 NLMO      Total    Paramagnetic  Diamagnetic   Paramagnetic  Diamagnetic
    6      -0.0339       -0.2099       0.1760        -1.0017       0.9678
   10       2.1518        0.6476       1.5042         1.5274       0.6244
   12      -0.0125       -0.0432       0.0307        -1.0106       0.9982
   22      22.9475       -0.3163      23.2638        -0.3044      23.2519
   43       3.6295        1.9570       1.6725         1.6728       1.9567
   44       4.9393        1.9008       3.0384         1.7832       3.1561
 Sum       33.6218        3.9360      29.6857         2.6667      30.9551

 Contributions to Isotropic shielding for atom   25 (    32.4760 ppm):
                         Standard Origin              Atomic Origin
 NLMO      Total    Paramagnetic  Diamagnetic   Paramagnetic  Diamagnetic
    8      -0.0990        0.1730      -0.2720        -1.0848       0.9858
   16       1.6253        0.1662       1.4590         0.5740       1.0513
   23       0.7886        2.2092      -1.4207        -0.2362       1.0248
   24       1.0715        1.2014      -0.1300         0.0303       1.0411
   25      26.5022       -0.0912      26.5935         0.4556      26.0466
 Sum       29.8886        3.6587      26.2299        -0.2610      30.1496

 Contributions to Isotropic shielding for atom   26 (    32.5293 ppm):
                         Standard Origin              Atomic Origin
 NLMO      Total    Paramagnetic  Diamagnetic   Paramagnetic  Diamagnetic
   12      -0.0772        0.1817      -0.2589        -1.0777       1.0005
   23       1.6010       -1.2262       2.8271         0.6845       0.9165
   24      -0.1379        0.3548      -0.4926        -1.0233       0.8854
   26      26.3609        0.2886      26.0723         0.4101      25.9508
   27       1.9475        1.0870       0.8605         0.1316       1.8159
   28       1.8724        1.9191      -0.0467         0.0310       1.8414
 Sum       31.5667        2.6049      28.9618        -0.8438      32.4105

 Contributions to Isotropic shielding for atom   27 (    32.4834 ppm):
                         Standard Origin              Atomic Origin
 NLMO      Total    Paramagnetic  Diamagnetic   Paramagnetic  Diamagnetic
   16      -0.0593        0.2953      -0.3546        -1.0085       0.9493
   23       1.5504       -0.7021       2.2525         0.5545       0.9959
   26       1.9996        0.9908       1.0087         0.1631       1.8364
   27      26.3755        0.2340      26.1415         0.4556      25.9199
   28       1.8784        2.3210      -0.4426         0.0251       1.8533
 Sum       31.7446        3.1391      28.6056         0.1898      31.5548

 Contributions to Isotropic shielding for atom   28 (    32.4258 ppm):
                         Standard Origin              Atomic Origin
 NLMO      Total    Paramagnetic  Diamagnetic   Paramagnetic  Diamagnetic
   23       1.3481        0.0465       1.3016         0.3326       1.0155
   24      -0.1709        0.7309      -0.9018        -1.1504       0.9795
   26       1.9496        1.6076       0.3420         0.0938       1.8558
   27       1.8640        2.0749      -0.2109         0.0128       1.8512
   28      26.3602        0.0420      26.3182         0.4524      25.9078
 Sum       31.3509        4.5018      26.8491        -0.2588      31.6097

 Contributions to Isotropic shielding for atom   29 (    32.8614 ppm):
                         Standard Origin              Atomic Origin
 NLMO      Total    Paramagnetic  Diamagnetic   Paramagnetic  Diamagnetic
   12      -0.0907       -0.0961       0.0054        -1.0017       0.9110
   23      -0.1139       -0.0206      -0.0933        -1.0310       0.9171
   24       1.3821       -0.1878       1.5699         0.4521       0.9299
   29      26.2967        0.2398      26.0569         0.3874      25.9093
   30       2.1646        0.2430       1.9216         0.3828       1.7818
   31       1.9965        1.9488       0.0477         0.1378       1.8587
 Sum       31.6353        2.1271      29.5082        -0.6725      32.3078

 Contributions to Isotropic shielding for atom   30 (    32.8240 ppm):
                         Standard Origin              Atomic Origin
 NLMO      Total    Paramagnetic  Diamagnetic   Paramagnetic  Diamagnetic
   24       1.4771       -0.5927       2.0698         0.4704       1.0067
   29       2.1619        0.3544       1.8075         0.3590       1.8029
   30      26.3532        0.3202      26.0331         0.3767      25.9765
   31       1.9885        1.6045       0.3840         0.1067       1.8818
 Sum       31.9807        1.6864      30.2944         1.3129      30.6678

 Contributions to Isotropic shielding for atom   31 (    32.5683 ppm):
                         Standard Origin              Atomic Origin
 NLMO      Total    Paramagnetic  Diamagnetic   Paramagnetic  Diamagnetic
   23      -0.1131        0.3873      -0.5004        -1.0949       0.9818
   24       1.1283        1.0055       0.1228         0.1086       1.0196
   28      -0.1046       -1.2034       1.0988        -0.9886       0.8841
   29       2.0054        1.6036       0.4019         0.1302       1.8752
   30       2.0515        1.2283       0.8232         0.1728       1.8786
   31      26.3025       -0.0148      26.3173         0.4124      25.8901
 Sum       31.2700        3.0064      28.2636        -1.2595      32.5295
 
 1\1\GINC-COMPUTE-10-6\SP\RHF\STO-3G\C10H20O1\YTSAI.IQUIR\03-Aug-2021\0
 \\# rhf/STO-3G nmr pop=nbo\\comment\\0,1\C,0,-2.11072339,-1.6726403,-1
 .962292124\C,0,-1.561668344,-1.172591856,-0.625990775\C,0,0.441329336,
 -1.274477643,0.95156004\C,0,-0.899849808,0.893746424,0.690762963\C,0,0
 .43761024,0.262384696,1.129380711\C,0,-1.477807123,0.354367108,-0.6161
 66433\C,0,-0.187735662,-1.790618236,-0.343459208\O,0,-0.263505505,-1.8
 65647812,2.052290719\C,0,1.718039495,0.94867299,0.560768276\C,0,1.9358
 74613,2.326797616,1.205182062\C,0,1.787543208,1.100721721,-0.956589684
 \H,0,-2.200099875,-2.764079744,-1.961017695\H,0,-3.104974288,-1.255439
 163,-2.153798259\H,0,-1.457872363,-1.387148183,-2.79419158\H,0,-2.2626
 26925,-1.488666538,0.157107288\H,0,1.464511393,-1.658671216,1.02487206
 \H,0,-0.817353446,1.983697092,0.627597216\H,0,-1.638370077,0.702105643
 ,1.481273917\H,0,0.488964769,0.433241482,2.216079828\H,0,-0.883021811,
 0.69981456,-1.467239956\H,0,-2.480523605,0.777144656,-0.757106989\H,0,
 0.483900482,-1.599494098,-1.185977502\H,0,-0.30185708,-2.880518135,-0.
 277882903\H,0,-1.159559422,-1.491382293,2.07962518\H,0,2.577172257,0.3
 34223125,0.862762711\H,0,1.159928778,3.04139444,0.914347204\H,0,1.9408
 91313,2.252797048,2.297713059\H,0,2.901967135,2.74484178,0.901083812\H
 ,0,1.033710562,1.799873882,-1.329730484\H,0,1.671022396,0.145459751,-1
 .469637628\H,0,2.765082746,1.500091203,-1.251325825\\Version=EM64L-G09
 RevC.01\State=1-A\HF=-459.6126621\RMSD=8.044e-09\Dipole=-0.1921662,0.4
 255747,-0.3781576\Quadrupole=2.6833262,-1.3189762,-1.36435,0.3075888,-
 1.2262491,2.3041372\PG=C01 [X(C10H20O1)]\\@


 WHAT, THEN, IS TIME?  IF NO ONE ASKS ME, I KNOW WHAT IT IS.
 IF I WISH TO EXPLAIN WHAT IT IS TO HIM WHO ASKS ME, I DO NOT KNOW.
                                   -- ST. AUGUSTINE (FIFTH CENTURY)
 Job cpu time:  0 days  0 hours  0 minutes 27.0 seconds.
 File lengths (MBytes):  RWF=      5 Int=      0 D2E=      0 Chk=      1 Scr=      1
 Normal termination of Gaussian 09 at Tue Aug  3 16:36:54 2021.
