 Entering Gaussian System, Link 0=g09
 Input=/home/ytsai.iquir/menthol/03_menthol_M0025_MMFF_NMR_rhf_STO-3G_nbo.gjc
 Output=/home/ytsai.iquir/menthol/03_menthol_M0025_MMFF_NMR_rhf_STO-3G_nbo.log
 Initial command:
 /share/apps/Gaussian09/EM64T.SSE4.2-enabled/g09/l1.exe /tmp/Gau-14507.inp -scrdir=/tmp/
 Entering Link 1 = /share/apps/Gaussian09/EM64T.SSE4.2-enabled/g09/l1.exe PID=     14508.
  
 Copyright (c) 1988,1990,1992,1993,1995,1998,2003,2009,2011,
            Gaussian, Inc.  All Rights Reserved.
  
 This is part of the Gaussian(R) 09 program.  It is based on
 the Gaussian(R) 03 system (copyright 2003, Gaussian, Inc.),
 the Gaussian(R) 98 system (copyright 1998, Gaussian, Inc.),
 the Gaussian(R) 94 system (copyright 1995, Gaussian, Inc.),
 the Gaussian 92(TM) system (copyright 1992, Gaussian, Inc.),
 the Gaussian 90(TM) system (copyright 1990, Gaussian, Inc.),
 the Gaussian 88(TM) system (copyright 1988, Gaussian, Inc.),
 the Gaussian 86(TM) system (copyright 1986, Carnegie Mellon
 University), and the Gaussian 82(TM) system (copyright 1983,
 Carnegie Mellon University). Gaussian is a federally registered
 trademark of Gaussian, Inc.
  
 This software contains proprietary and confidential information,
 including trade secrets, belonging to Gaussian, Inc.
  
 This software is provided under written license and may be
 used, copied, transmitted, or stored only in accord with that
 written license.
  
 The following legend is applicable only to US Government
 contracts under FAR:
  
                    RESTRICTED RIGHTS LEGEND
  
 Use, reproduction and disclosure by the US Government is
 subject to restrictions as set forth in subparagraphs (a)
 and (c) of the Commercial Computer Software - Restricted
 Rights clause in FAR 52.227-19.
  
 Gaussian, Inc.
 340 Quinnipiac St., Bldg. 40, Wallingford CT 06492
  
  
 ---------------------------------------------------------------
 Warning -- This program may not be used in any manner that
 competes with the business of Gaussian, Inc. or will provide
 assistance to any competitor of Gaussian, Inc.  The licensee
 of this program is prohibited from giving any competitor of
 Gaussian, Inc. access to this program.  By using this program,
 the user acknowledges that Gaussian, Inc. is engaged in the
 business of creating and licensing software in the field of
 computational chemistry and represents and warrants to the
 licensee that it is not a competitor of Gaussian, Inc. and that
 it will not use this program in any manner prohibited above.
 ---------------------------------------------------------------
  

 Cite this work as:
 Gaussian 09, Revision C.01,
 M. J. Frisch, G. W. Trucks, H. B. Schlegel, G. E. Scuseria, 
 M. A. Robb, J. R. Cheeseman, G. Scalmani, V. Barone, B. Mennucci, 
 G. A. Petersson, H. Nakatsuji, M. Caricato, X. Li, H. P. Hratchian, 
 A. F. Izmaylov, J. Bloino, G. Zheng, J. L. Sonnenberg, M. Hada, 
 M. Ehara, K. Toyota, R. Fukuda, J. Hasegawa, M. Ishida, T. Nakajima, 
 Y. Honda, O. Kitao, H. Nakai, T. Vreven, J. A. Montgomery, Jr., 
 J. E. Peralta, F. Ogliaro, M. Bearpark, J. J. Heyd, E. Brothers, 
 K. N. Kudin, V. N. Staroverov, T. Keith, R. Kobayashi, J. Normand, 
 K. Raghavachari, A. Rendell, J. C. Burant, S. S. Iyengar, J. Tomasi, 
 M. Cossi, N. Rega, J. M. Millam, M. Klene, J. E. Knox, J. B. Cross, 
 V. Bakken, C. Adamo, J. Jaramillo, R. Gomperts, R. E. Stratmann, 
 O. Yazyev, A. J. Austin, R. Cammi, C. Pomelli, J. W. Ochterski, 
 R. L. Martin, K. Morokuma, V. G. Zakrzewski, G. A. Voth, 
 P. Salvador, J. J. Dannenberg, S. Dapprich, A. D. Daniels, 
 O. Farkas, J. B. Foresman, J. V. Ortiz, J. Cioslowski, 
 and D. J. Fox, Gaussian, Inc., Wallingford CT, 2010.
 
 ******************************************
 Gaussian 09:  EM64L-G09RevC.01 23-Sep-2011
                24-May-2020 
 ******************************************
 %nprocshared=4
 Will use up to    4 processors via shared memory.
 ------------------------
 # rhf/STO-3G nmr pop=nbo
 ------------------------
 1/38=1/1;
 2/12=2,17=6,18=5,40=1/2;
 3/6=3,11=1,16=1,25=1,30=1,116=1/1,2,8,3;
 4//1;
 5/5=2,38=5/2;
 8/6=1,10=90,11=11/1;
 10/13=100,45=16/2;
 6/7=2,8=2,9=2,10=2,28=1,64=1/1,7;
 99/9=1/99;
 -------
 comment
 -------
 Charge =  0 Multiplicity = 1
 Symbolic Z-Matrix:
 6                     0.0603    0.88254  -2.93887 
 6                    -1.06108   0.13332  -2.2146 
 6                     0.32179  -0.97022  -0.36065 
 6                    -0.86064   1.21737   0.08824 
 6                    -0.3938   -0.11671   0.70992 
 6                    -1.73287   1.00541  -1.14867 
 6                    -0.56284  -1.17589  -1.59562 
 8                     0.63483  -2.26523   0.1406 
 6                     0.41519   0.15754   2.01487 
 6                     1.85065   0.62964   1.7724 
 6                     0.41247  -1.03481   2.97785 
 1                     0.86796   1.18149  -2.2646 
 1                     0.49569   0.25583  -3.72455 
 1                    -0.32903   1.78852  -3.41559 
 1                    -1.81644  -0.11669  -2.97104 
 1                     1.25889  -0.49704  -0.67423 
 1                     0.00207   1.83875  -0.17631 
 1                    -1.43927   1.78635   0.82637 
 1                    -1.29925  -0.66166   1.01524 
 1                    -2.01      1.97762  -1.57331 
 1                    -2.66973   0.52479  -0.83801 
 1                    -0.0203   -1.77018  -2.34217 
 1                    -1.42797  -1.79242  -1.31438 
 1                     1.49918  -2.20669   0.58075 
 1                    -0.10108   0.96724   2.54941 
 1                     2.46972  -0.15883   1.33336 
 1                     1.88059   1.4989    1.10915 
 1                     2.31951   0.92383   2.71807 
 1                     1.02806  -1.86396   2.62202 
 1                    -0.60465  -1.40542   3.14149 
 1                     0.81203  -0.73341   3.95287 
 
                          Input orientation:                          
 ---------------------------------------------------------------------
 Center     Atomic      Atomic             Coordinates (Angstroms)
 Number     Number       Type             X           Y           Z
 ---------------------------------------------------------------------
      1          6           0        0.060301    0.882542   -2.938874
      2          6           0       -1.061079    0.133323   -2.214602
      3          6           0        0.321788   -0.970224   -0.360648
      4          6           0       -0.860644    1.217373    0.088240
      5          6           0       -0.393801   -0.116707    0.709916
      6          6           0       -1.732873    1.005408   -1.148670
      7          6           0       -0.562837   -1.175889   -1.595621
      8          8           0        0.634831   -2.265225    0.140599
      9          6           0        0.415195    0.157538    2.014867
     10          6           0        1.850651    0.629645    1.772405
     11          6           0        0.412473   -1.034806    2.977848
     12          1           0        0.867959    1.181493   -2.264599
     13          1           0        0.495690    0.255827   -3.724550
     14          1           0       -0.329032    1.788523   -3.415593
     15          1           0       -1.816442   -0.116691   -2.971042
     16          1           0        1.258894   -0.497036   -0.674228
     17          1           0        0.002075    1.838747   -0.176311
     18          1           0       -1.439267    1.786350    0.826368
     19          1           0       -1.299246   -0.661662    1.015235
     20          1           0       -2.010000    1.977621   -1.573306
     21          1           0       -2.669725    0.524787   -0.838014
     22          1           0       -0.020301   -1.770182   -2.342166
     23          1           0       -1.427966   -1.792424   -1.314378
     24          1           0        1.499180   -2.206687    0.580750
     25          1           0       -0.101075    0.967244    2.549407
     26          1           0        2.469718   -0.158825    1.333362
     27          1           0        1.880588    1.498898    1.109154
     28          1           0        2.319514    0.923827    2.718067
     29          1           0        1.028056   -1.863959    2.622019
     30          1           0       -0.604653   -1.405416    3.141494
     31          1           0        0.812031   -0.733413    3.952871
 ---------------------------------------------------------------------
                    Distance matrix (angstroms):
                    1          2          3          4          5
     1  C    0.000000
     2  C    1.530814   0.000000
     3  C    3.185650   2.562671   0.000000
     4  C    3.181771   2.553120   2.526901   0.000000
     5  C    3.810299   3.010080   1.544884   1.544083   0.000000
     6  C    2.536809   1.532335   2.957319   1.528287   2.550804
     7  C    2.535699   1.531477   1.532976   2.941391   2.542821
     8  O    4.440909   3.765118   1.423472   3.790472   2.449150
     9  C    5.019076   4.479774   2.631281   2.542225   1.559673
    10  C    5.046331   4.961928   3.073584   3.245451   2.592969
    11  C    6.229594   5.522447   3.340352   3.878527   2.576140
    12  H    1.093769   2.195985   2.924589   2.919796   3.482112
    13  H    1.095273   2.172206   3.584589   4.159517   4.538113
    14  H    1.095282   2.172086   4.167366   3.589661   4.544659
    15  H    2.126421   1.097853   3.480618   3.471669   3.946310
    16  H    2.910065   2.855237   1.095631   2.830723   2.189042
    17  H    2.923948   2.862411   2.833110   1.095617   2.183098
    18  H    4.152423   3.481813   3.479802   1.096983   2.174439
    19  H    4.457344   3.334752   2.148492   2.140669   1.100012
    20  H    2.711110   2.170978   3.949376   2.158642   3.494483
    21  H    3.463328   2.153133   3.378178   2.147183   2.826204
    22  H    2.720203   2.173206   2.164110   3.941895   3.491230
    23  H    3.465454   2.157200   2.155749   3.368690   2.824056
    24  H    4.899129   4.454724   1.949698   4.187544   2.822779
    25  H    5.491306   4.930803   3.521508   2.587828   2.155079
    26  H    5.014153   5.013973   2.853356   3.812553   2.930905
    27  H    4.481057   4.643873   3.269058   2.938685   2.818229
    28  H    6.091529   6.031959   4.129991   4.137096   3.532345
    29  H    6.277208   5.634406   3.192785   4.413823   2.954777
    30  H    6.530527   5.591405   3.648655   4.033226   2.760036
    31  H    7.118466   6.503653   4.347743   4.640989   3.514415
                    6          7          8          9         10
     6  C    0.000000
     7  C    2.515315   0.000000
     8  O    4.238547   2.373925   0.000000
     9  C    3.916765   3.971170   3.070977   0.000000
    10  C    4.638483   4.519786   3.538542   1.530427   0.000000
    11  C    5.078695   4.678434   3.100542   1.532653   2.508355
    12  H    2.835601   2.837597   4.209417   4.423495   4.191374
    13  H    3.487624   2.775361   4.616756   5.740822   5.673814
    14  H    2.779025   3.486359   5.477993   5.718731   5.745375
    15  H    2.141759   2.141311   4.506356   5.469433   6.041927
    16  H    3.381287   2.151396   2.044478   2.893359   2.757825
    17  H    2.156381   3.379585   4.164541   2.792560   2.945616
    18  H    2.144027   3.925432   4.602980   2.739450   3.613379
    19  H    2.765799   2.761032   2.660274   2.147011   3.487496
    20  H    1.096500   3.469785   5.285295   4.697793   5.283507
    21  H    1.097814   2.811627   4.434179   4.217882   5.221023
    22  H    3.472929   1.097661   2.615030   4.784296   5.117550
    23  H    2.819272   1.098937   2.568196   4.275917   5.113118
    24  H    4.873871   3.170338   0.971730   2.970063   3.096507
    25  H    4.042277   4.689083   4.097899   1.099042   2.127661
    26  H    5.017738   4.337020   3.037502   2.187602   1.094390
    27  H    4.289336   4.521130   4.081499   2.183332   1.093801
    28  H    5.601799   5.596843   4.433008   2.169820   1.095743
    29  H    5.483986   4.559919   2.544226   2.197882   2.759813
    30  H    5.048808   4.742856   3.358715   2.179955   3.470503
    31  H    5.960349   5.733394   4.112332   2.169593   2.773282
                   11         12         13         14         15
    11  C    0.000000
    12  H    5.709877   0.000000
    13  H    6.826038   1.768304   0.000000
    14  H    7.028307   1.768067   1.767704   0.000000
    15  H    6.418745   3.064369   2.460183   2.457612   0.000000
    16  H    3.787253   2.345116   3.233225   3.906452   3.857163
    17  H    4.286543   2.354291   3.916541   3.256548   3.865393
    18  H    4.002090   3.904257   5.176622   4.384845   4.264288
    19  H    2.630792   4.341810   5.150645   5.155285   4.056463
    20  H    5.971273   3.065022   3.724367   2.501087   2.525327
    21  H    5.147142   3.870610   4.292352   3.704023   2.385246
    22  H    5.388007   3.083409   2.506381   3.729872   2.521040
    23  H    4.731216   3.875355   3.701988   4.294874   2.388207
    24  H    2.881027   4.469252   5.060294   5.939261   5.289297
    25  H    2.110805   4.915240   6.342301   6.025586   5.881561
    26  H    2.775596   4.160217   5.445291   5.846173   6.074606
    27  H    3.473764   3.536717   5.179562   5.043772   5.738132
    28  H    2.746003   5.196187   6.729032   6.736786   7.110188
    29  H    1.092270   5.760160   6.712365   7.185755   6.513559
    30  H    1.094841   6.171428   7.149338   7.298808   6.363359
    31  H    1.095972   6.505915   7.747352   7.871242   7.431675
                   16         17         18         19         20
    16  H    0.000000
    17  H    2.698777   0.000000
    18  H    3.840014   1.756581   0.000000
    19  H    3.070092   3.060272   2.459276   0.000000
    20  H    4.197373   2.453432   2.474017   3.764510   0.000000
    21  H    4.062634   3.050058   2.423991   2.592375   1.756877
    22  H    2.457489   4.209014   4.970110   3.759875   4.312317
    23  H    3.050744   4.065171   4.170197   2.592738   3.823486
    24  H    2.134389   4.379498   4.963783   3.225999   5.870497
    25  H    3.792817   2.863511   2.330355   2.538234   4.654205
    26  H    2.368734   3.515490   4.395556   3.815644   5.751608
    27  H    2.747856   2.301462   3.344253   3.845541   4.749889
    28  H    3.827720   3.819035   4.295451   4.302189   6.186361
    29  H    3.575893   4.753243   4.757815   3.073046   6.448898
    30  H    4.342545   4.679801   4.030354   2.357245   5.970702
    31  H    4.654633   4.931752   4.603538   3.618334   6.771425
                   21         22         23         24         25
    21  H    0.000000
    22  H    3.814290   0.000000
    23  H    2.671770   1.743090   0.000000
    24  H    5.182047   3.323070   3.511596   0.000000
    25  H    4.274149   5.606025   4.930035   4.063283   0.000000
    26  H    5.621038   4.722941   4.987095   2.387909   3.058722
    27  H    5.044373   5.119753   5.258597   3.762452   2.506785
    28  H    6.139825   6.191799   6.138586   3.878298   2.426846
    29  H    5.599243   5.074542   4.640300   2.122781   3.048922
    30  H    4.881259   5.526757   4.547792   3.409627   2.496733
    31  H    6.054607   6.433907   5.820911   3.743516   2.386568
                   26         27         28         29         30
    26  H    0.000000
    27  H    1.773525   0.000000
    28  H    1.764116   1.764076   0.000000
    29  H    2.578082   3.784757   3.073897   0.000000
    30  H    3.778239   4.329188   3.762368   1.773656   0.000000
    31  H    3.152762   3.769848   2.558064   1.759537   1.765479
                   31
    31  H    0.000000
 Stoichiometry    C10H20O
 Framework group  C1[X(C10H20O)]
 Deg. of freedom    87
 Full point group                 C1      NOp   1
 Largest Abelian subgroup         C1      NOp   1
 Largest concise Abelian subgroup C1      NOp   1
                         Standard orientation:                         
 ---------------------------------------------------------------------
 Center     Atomic      Atomic             Coordinates (Angstroms)
 Number     Number       Type             X           Y           Z
 ---------------------------------------------------------------------
      1          6           0       -2.845516   -0.160207    1.183847
      2          6           0       -2.412666    0.117990   -0.257902
      3          6           0       -0.028787    0.945820    0.188303
      4          6           0       -0.425274   -1.477796   -0.406769
      5          6           0        0.557245   -0.292579   -0.525559
      6          6           0       -1.819695   -1.127557   -0.925020
      7          6           0       -1.426776    1.287042   -0.340100
      8          8           0        0.783535    2.094676   -0.027419
      9          6           0        1.981426   -0.732764   -0.066727
     10          6           0        2.151047   -0.814322    1.452083
     11          6           0        3.094250    0.130243   -0.671595
     12          1           0       -2.008362   -0.454812    1.823152
     13          1           0       -3.305714    0.730339    1.625174
     14          1           0       -3.587371   -0.965459    1.213209
     15          1           0       -3.317298    0.399427   -0.812625
     16          1           0       -0.092504    0.778997    1.269283
     17          1           0       -0.496747   -1.812602    0.633987
     18          1           0       -0.046188   -2.330966   -0.982760
     19          1           0        0.637538   -0.049457   -1.595359
     20          1           0       -2.488287   -1.985825   -0.788367
     21          1           0       -1.757186   -0.952904   -2.007048
     22          1           0       -1.820976    2.158806    0.197945
     23          1           0       -1.341626    1.612321   -1.386334
     24          1           0        1.469135    2.100781    0.661184
     25          1           0        2.148155   -1.744902   -0.461279
     26          1           0        2.102974    0.173542    1.920592
     27          1           0        1.384953   -1.448086    1.907982
     28          1           0        3.125623   -1.247446    1.703594
     29          1           0        3.129470    1.133350   -0.240793
     30          1           0        2.973352    0.224172   -1.755679
     31          1           0        4.071259   -0.331905   -0.489862
 ---------------------------------------------------------------------
 Rotational constants (GHZ):      1.7137425      0.7456150      0.6548938
 Standard basis: STO-3G (5D, 7F)
 There are    75 symmetry adapted basis functions of A   symmetry.
 Integral buffers will be    131072 words long.
 Raffenetti 1 integral format.
 Two-electron integral symmetry is turned on.
    75 basis functions,   225 primitive gaussians,    75 cartesian basis functions
    44 alpha electrons       44 beta electrons
       nuclear repulsion energy       698.6258938377 Hartrees.
 NAtoms=   31 NActive=   31 NUniq=   31 SFac= 1.00D+00 NAtFMM=   60 NAOKFM=F Big=F
 One-electron integrals computed using PRISM.
 NBasis=    75 RedAO= T  NBF=    75
 NBsUse=    75 1.00D-06 NBFU=    75
 Harris functional with IExCor=  205 diagonalized for initial guess.
 ExpMin= 1.69D-01 ExpMax= 1.31D+02 ExpMxC= 1.31D+02 IAcc=1 IRadAn=         1 AccDes= 0.00D+00
 HarFok:  IExCor=  205 AccDes= 0.00D+00 IRadAn=         1 IDoV= 1
 ScaDFX=  1.000000  1.000000  1.000000  1.000000
 FoFCou: FMM=F IPFlag=           0 FMFlag=      100000 FMFlg1=           0
         NFxFlg=           0 DoJE=T BraDBF=F KetDBF=T FulRan=T
         Omega=  0.000000  0.000000  1.000000  0.000000  0.000000 ICntrl=     500 IOpCl=  0
         NMat0=    1 NMatS0=    1 NMatT0=    0 NMatD0=    1 NMtDS0=    0 NMtDT0=    0
         I1Cent=           4 NGrid=           0.
 Petite list used in FoFCou.
 Initial guess orbital symmetries:
       Occupied  (A) (A) (A) (A) (A) (A) (A) (A) (A) (A) (A) (A)
                 (A) (A) (A) (A) (A) (A) (A) (A) (A) (A) (A) (A)
                 (A) (A) (A) (A) (A) (A) (A) (A) (A) (A) (A) (A)
                 (A) (A) (A) (A) (A) (A) (A) (A)
       Virtual   (A) (A) (A) (A) (A) (A) (A) (A) (A) (A) (A) (A)
                 (A) (A) (A) (A) (A) (A) (A) (A) (A) (A) (A) (A)
                 (A) (A) (A) (A) (A) (A) (A)
 The electronic state of the initial guess is 1-A.
 Requested convergence on RMS density matrix=1.00D-08 within 128 cycles.
 Requested convergence on MAX density matrix=1.00D-06.
 Requested convergence on             energy=1.00D-06.
 No special actions if energy rises.
 Keep R1 ints in memory in canonical form, NReq=4898789.
 SCF Done:  E(RHF) =  -459.617043374     A.U. after   10 cycles
             Convg  =    0.9503D-08             -V/T =  2.0089
 Range of M.O.s used for correlation:     1    75
 NBasis=    75 NAE=    44 NBE=    44 NFC=     0 NFV=     0
 NROrb=     75 NOA=    44 NOB=    44 NVA=    31 NVB=    31
          Differentiating once with respect to magnetic field using GIAOs.
          Electric field/nuclear overlap derivatives assumed to be zero.
          Keep R3 ints in memory in canonical form, NReq=4863575.
 FoFCou: FMM=F IPFlag=           0 FMFlag=           0 FMFlg1=           0
         NFxFlg=           0 DoJE=F BraDBF=F KetDBF=T FulRan=T
         Omega=  0.000000  0.000000  1.000000  0.000000  0.000000 ICntrl=    6100 IOpCl=  0
         NMat0=    1 NMatS0=    1 NMatT0=    0 NMatD0=    1 NMtDS0=    0 NMtDT0=    0
         I1Cent=           7 NGrid=          31.
 Symmetry not used in FoFCou.
          There are     3 degrees of freedom in the 1st order CPHF.  IDoFFX=0.
      3 vectors produced by pass  0 Test12= 4.55D-14 3.33D-08 XBig12= 6.92D+00 4.57D-01.
 AX will form     3 AO Fock derivatives at one time.
      3 vectors produced by pass  1 Test12= 4.55D-14 3.33D-08 XBig12= 1.07D-02 1.87D-02.
      3 vectors produced by pass  2 Test12= 4.55D-14 3.33D-08 XBig12= 6.91D-05 2.59D-03.
      3 vectors produced by pass  3 Test12= 4.55D-14 3.33D-08 XBig12= 1.89D-06 3.69D-04.
      3 vectors produced by pass  4 Test12= 4.55D-14 3.33D-08 XBig12= 1.84D-08 2.79D-05.
      3 vectors produced by pass  5 Test12= 4.55D-14 3.33D-08 XBig12= 2.62D-10 3.63D-06.
      3 vectors produced by pass  6 Test12= 4.55D-14 3.33D-08 XBig12= 2.45D-12 3.12D-07.
 Inverted reduced A of dimension    21 with in-core refinement.
 Calculating GIAO nuclear magnetic shielding tensors.
 SCF GIAO Magnetic shielding tensor (ppm):
      1  C    Isotropic =   222.9717   Anisotropy =    24.2093
   XX=   216.9866   YX=     2.9692   ZX=    -9.3951
   XY=     4.0208   YY=   219.3249   ZY=    -1.7518
   XZ=   -13.5547   YZ=    -1.1647   ZZ=   232.6034
   Eigenvalues:   210.2546   219.5492   239.1112
      2  C    Isotropic =   216.2317   Anisotropy =     3.9037
   XX=   216.2796   YX=     1.3283   ZX=    -3.3696
   XY=     1.0346   YY=   217.7335   ZY=     1.0353
   XZ=    -2.9626   YZ=     1.1821   ZZ=   214.6819
   Eigenvalues:   211.7842   218.0767   218.8341
      3  C    Isotropic =   189.2796   Anisotropy =    44.0114
   XX=   196.5141   YX=    16.3309   ZX=    -3.7766
   XY=    17.1774   YY=   204.9221   ZY=    -1.9043
   XZ=    -7.2401   YZ=    -4.0132   ZZ=   166.4026
   Eigenvalues:   165.4266   183.7916   218.6205
      4  C    Isotropic =   217.2533   Anisotropy =    20.9660
   XX=   228.1803   YX=     4.6322   ZX=     4.2743
   XY=     5.5688   YY=   221.6280   ZY=     2.0817
   XZ=    -0.1420   YZ=     1.9518   ZZ=   201.9515
   Eigenvalues:   201.6525   218.8767   231.2306
      5  C    Isotropic =   208.5747   Anisotropy =    13.3603
   XX=   215.3253   YX=    -2.0123   ZX=     4.1983
   XY=    -2.1259   YY=   204.7061   ZY=     0.1111
   XZ=     4.7502   YZ=    -1.9222   ZZ=   205.6927
   Eigenvalues:   203.9166   204.3259   217.4816
      6  C    Isotropic =   216.6816   Anisotropy =    11.2066
   XX=   219.9054   YX=    -3.4286   ZX=    -1.3357
   XY=    -3.6160   YY=   217.5333   ZY=     7.6999
   XZ=    -0.7448   YZ=     3.4993   ZZ=   212.6062
   Eigenvalues:   208.8418   217.0504   224.1527
      7  C    Isotropic =   215.8930   Anisotropy =    15.6300
   XX=   224.6328   YX=     5.2678   ZX=    -0.5300
   XY=     2.8795   YY=   216.4290   ZY=    -3.7823
   XZ=     2.1959   YZ=     0.4938   ZZ=   206.6173
   Eigenvalues:   206.2204   215.1457   226.3130
      8  O    Isotropic =   364.6275   Anisotropy =    74.8470
   XX=   380.8365   YX=     4.5547   ZX=    25.6129
   XY=   -18.6936   YY=   332.7367   ZY=    -2.8316
   XZ=    41.8649   YZ=     5.2765   ZZ=   380.3094
   Eigenvalues:   330.4445   348.9125   414.5255
      9  C    Isotropic =   212.2058   Anisotropy =    19.2895
   XX=   223.8642   YX=    -2.2771   ZX=     2.0670
   XY=    -2.3688   YY=   207.2523   ZY=    -1.3935
   XZ=     6.0005   YZ=    -0.9156   ZZ=   205.5008
   Eigenvalues:   204.4807   207.0712   225.0654
     10  C    Isotropic =   224.2462   Anisotropy =    19.5559
   XX=   218.8529   YX=    -1.3977   ZX=     3.2001
   XY=     0.0407   YY=   217.2402   ZY=    -1.9896
   XZ=     0.5951   YZ=    -3.8243   ZZ=   236.6454
   Eigenvalues:   216.7327   218.7224   237.2834
     11  C    Isotropic =   219.9566   Anisotropy =    28.0159
   XX=   228.3163   YX=     8.3642   ZX=    -9.8795
   XY=    11.2865   YY=   213.8448   ZY=    -8.0741
   XZ=    -6.2966   YZ=    -6.5267   ZZ=   217.7087
   Eigenvalues:   207.4928   213.7431   238.6339
     12  H    Isotropic =    32.7276   Anisotropy =     7.8465
   XX=    34.5292   YX=    -1.5391   ZX=     1.4315
   XY=    -1.4001   YY=    27.4055   ZY=    -2.7768
   XZ=     1.3900   YZ=    -2.7118   ZZ=    36.2480
   Eigenvalues:    26.4870    33.7371    37.9585
     13  H    Isotropic =    32.5839   Anisotropy =    14.0550
   XX=    32.1407   YX=    -3.9732   ZX=    -5.4856
   XY=    -4.0114   YY=    33.1363   ZY=     4.1401
   XZ=    -5.7703   YZ=     4.6925   ZZ=    32.4745
   Eigenvalues:    26.6638    29.1340    41.9538
     14  H    Isotropic =    32.6278   Anisotropy =    14.3958
   XX=    35.5681   YX=     6.2959   ZX=    -3.9088
   XY=     6.7019   YY=    32.7039   ZY=    -1.5132
   XZ=    -4.1804   YZ=    -1.9493   ZZ=    29.6114
   Eigenvalues:    26.6515    29.0069    42.2250
     15  H    Isotropic =    32.3513   Anisotropy =    15.5196
   XX=    38.7679   YX=    -3.2153   ZX=     5.8688
   XY=    -3.1425   YY=    27.6777   ZY=    -1.8433
   XZ=     5.7785   YZ=    -1.8590   ZZ=    30.6083
   Eigenvalues:    26.7443    27.6119    42.6977
     16  H    Isotropic =    32.2218   Anisotropy =     5.1195
   XX=    32.7917   YX=    -0.2941   ZX=    -0.0135
   XY=     0.4095   YY=    28.2535   ZY=    -0.3465
   XZ=     0.3623   YZ=     0.6754   ZZ=    35.6203
   Eigenvalues:    28.2492    32.7815    35.6348
     17  H    Isotropic =    32.7675   Anisotropy =     8.5288
   XX=    32.4610   YX=     0.7084   ZX=     0.4284
   XY=     0.3562   YY=    31.3245   ZY=    -5.1244
   XZ=     0.3611   YZ=    -5.4704   ZZ=    34.5169
   Eigenvalues:    27.3029    32.5462    38.4534
     18  H    Isotropic =    32.5806   Anisotropy =    13.4819
   XX=    31.8365   YX=    -2.3614   ZX=    -0.5634
   XY=    -2.6667   YY=    37.8812   ZY=     6.3717
   XZ=    -0.4899   YZ=     6.1719   ZZ=    28.0242
   Eigenvalues:    24.9163    31.2571    41.5686
     19  H    Isotropic =    32.4230   Anisotropy =     9.5395
   XX=    32.3324   YX=     0.4411   ZX=    -1.1011
   XY=     0.4179   YY=    26.7008   ZY=    -1.6815
   XZ=    -1.4871   YZ=    -1.8681   ZZ=    38.2358
   Eigenvalues:    26.4246    32.0618    38.7827
     20  H    Isotropic =    32.5197   Anisotropy =    14.6173
   XX=    34.2421   YX=     6.4340   ZX=     0.6055
   XY=     6.7394   YY=    36.5002   ZY=     2.2685
   XZ=     0.1850   YZ=     1.7728   ZZ=    26.8167
   Eigenvalues:    26.2088    29.0857    42.2646
     21  H    Isotropic =    32.4447   Anisotropy =    13.3484
   XX=    29.1610   YX=    -0.1687   ZX=     2.0875
   XY=    -0.1147   YY=    27.4508   ZY=     1.9179
   XZ=     2.2378   YZ=     1.7646   ZZ=    40.7222
   Eigenvalues:    27.0929    28.8975    41.3436
     22  H    Isotropic =    32.0408   Anisotropy =    13.5580
   XX=    31.4795   YX=    -4.0097   ZX=    -1.6387
   XY=    -3.8292   YY=    38.0692   ZY=     3.4795
   XZ=    -2.1545   YZ=     3.8994   ZZ=    26.5736
   Eigenvalues:    25.3834    29.6595    41.0795
     23  H    Isotropic =    32.1117   Anisotropy =    12.4599
   XX=    29.4021   YX=     0.0061   ZX=     1.1565
   XY=     0.0727   YY=    31.0916   ZY=    -6.3811
   XZ=     1.4443   YZ=    -6.4741   ZZ=    35.8414
   Eigenvalues:    26.4079    29.5090    40.4183
     24  H    Isotropic =    34.7300   Anisotropy =    16.4746
   XX=    37.8668   YX=     4.4657   ZX=     8.1879
   XY=     3.7687   YY=    34.0310   ZY=     0.8905
   XZ=     9.0708   YZ=     2.2879   ZZ=    32.2921
   Eigenvalues:    25.8314    32.6455    45.7130
     25  H    Isotropic =    32.5195   Anisotropy =    11.7028
   XX=    31.8368   YX=    -2.6180   ZX=    -1.0893
   XY=    -2.4907   YY=    37.7112   ZY=     4.7329
   XZ=    -0.8179   YZ=     4.1733   ZZ=    28.0104
   Eigenvalues:    26.2760    30.9611    40.3214
     26  H    Isotropic =    33.2343   Anisotropy =     9.5687
   XX=    29.8973   YX=    -0.7631   ZX=     2.0632
   XY=    -0.6455   YY=    34.6477   ZY=     4.7204
   XZ=     2.2031   YZ=     4.4423   ZZ=    35.1580
   Eigenvalues:    28.0618    32.0276    39.6135
     27  H    Isotropic =    32.6463   Anisotropy =    10.7218
   XX=    33.2313   YX=     3.4386   ZX=    -1.3042
   XY=     3.3161   YY=    30.5679   ZY=    -5.4013
   XZ=    -1.5672   YZ=    -5.7685   ZZ=    34.1398
   Eigenvalues:    25.9441    32.2007    39.7942
     28  H    Isotropic =    32.5788   Anisotropy =    14.6547
   XX=    37.0806   YX=    -4.7819   ZX=     4.7974
   XY=    -4.6242   YY=    28.9276   ZY=    -3.1185
   XZ=     4.9201   YZ=    -3.2551   ZZ=    31.7281
   Eigenvalues:    26.4875    28.9002    42.3486
     29  H    Isotropic =    32.7349   Anisotropy =     9.2754
   XX=    32.9694   YX=     2.7141   ZX=    -1.4626
   XY=     2.9077   YY=    37.3404   ZY=     2.3068
   XZ=    -0.8714   YZ=     2.0814   ZZ=    27.8949
   Eigenvalues:    26.8601    32.4261    38.9185
     30  H    Isotropic =    32.2944   Anisotropy =    12.5703
   XX=    31.0476   YX=     1.0687   ZX=    -3.4038
   XY=     0.9591   YY=    26.6307   ZY=    -2.4478
   XZ=    -2.7478   YZ=    -2.1147   ZZ=    39.2049
   Eigenvalues:    26.1767    30.0319    40.6746
     31  H    Isotropic =    32.4560   Anisotropy =    14.7327
   XX=    41.7230   YX=    -2.9299   ZX=    -1.1143
   XY=    -2.4971   YY=    27.9406   ZY=    -0.8510
   XZ=    -0.8104   YZ=    -1.1512   ZZ=    27.7044
   Eigenvalues:    26.3776    28.7127    42.2778
 End of Minotr Frequency-dependent properties file   721 does not exist.
 End of Minotr Frequency-dependent properties file   722 does not exist.

 **********************************************************************

            Population analysis using the SCF density.

 **********************************************************************

 Orbital symmetries:
       Occupied  (A) (A) (A) (A) (A) (A) (A) (A) (A) (A) (A) (A)
                 (A) (A) (A) (A) (A) (A) (A) (A) (A) (A) (A) (A)
                 (A) (A) (A) (A) (A) (A) (A) (A) (A) (A) (A) (A)
                 (A) (A) (A) (A) (A) (A) (A) (A)
       Virtual   (A) (A) (A) (A) (A) (A) (A) (A) (A) (A) (A) (A)
                 (A) (A) (A) (A) (A) (A) (A) (A) (A) (A) (A) (A)
                 (A) (A) (A) (A) (A) (A) (A)
 The electronic state is 1-A.
 Alpha  occ. eigenvalues --  -20.23718 -11.08457 -11.04831 -11.04644 -11.03988
 Alpha  occ. eigenvalues --  -11.03688 -11.03600 -11.03560 -11.03388 -11.03142
 Alpha  occ. eigenvalues --  -11.02980  -1.27865  -1.08215  -1.03873  -0.96773
 Alpha  occ. eigenvalues --   -0.94516  -0.89312  -0.88279  -0.79495  -0.78700
 Alpha  occ. eigenvalues --   -0.72615  -0.69632  -0.62268  -0.61257  -0.59622
 Alpha  occ. eigenvalues --   -0.57618  -0.56542  -0.54379  -0.53433  -0.52631
 Alpha  occ. eigenvalues --   -0.50895  -0.50614  -0.49528  -0.48181  -0.46560
 Alpha  occ. eigenvalues --   -0.45391  -0.43955  -0.43164  -0.41885  -0.41558
 Alpha  occ. eigenvalues --   -0.40155  -0.37984  -0.37301  -0.32578
 Alpha virt. eigenvalues --    0.52842   0.55279   0.56436   0.59415   0.60787
 Alpha virt. eigenvalues --    0.61971   0.63649   0.65263   0.66020   0.66759
 Alpha virt. eigenvalues --    0.67537   0.68469   0.70438   0.70861   0.71102
 Alpha virt. eigenvalues --    0.72726   0.73219   0.74993   0.76301   0.77041
 Alpha virt. eigenvalues --    0.77912   0.77997   0.78920   0.79192   0.80179
 Alpha virt. eigenvalues --    0.81297   0.82398   0.82770   0.83962   0.84502
 Alpha virt. eigenvalues --    0.85671
          Condensed to atoms (all electrons):
              1          2          3          4          5          6
     1  C    4.743506   0.364378  -0.001431  -0.001433   0.000081  -0.023878
     2  C    0.364378   4.742679  -0.019275  -0.021673  -0.002865   0.362994
     3  C   -0.001431  -0.019275   4.740928  -0.021330   0.355465  -0.003797
     4  C   -0.001433  -0.021673  -0.021330   4.759795   0.359734   0.363418
     5  C    0.000081  -0.002865   0.355465   0.359734   4.791922  -0.020958
     6  C   -0.023878   0.362994  -0.003797   0.363418  -0.020958   4.755078
     7  C   -0.024030   0.362388   0.360132  -0.003808  -0.023471  -0.024122
     8  O    0.000001   0.000241   0.266439   0.000234  -0.018726   0.000001
     9  C    0.000000   0.000002  -0.018115  -0.022393   0.358313   0.000649
    10  C    0.000000   0.000000  -0.002676  -0.000995  -0.020595   0.000001
    11  C    0.000000   0.000000  -0.000099   0.000675  -0.021560  -0.000005
    12  H    0.382447  -0.019915  -0.000446  -0.000385   0.000045  -0.001674
    13  H    0.382419  -0.020259   0.000020   0.000005  -0.000002   0.001255
    14  H    0.382346  -0.020262   0.000009   0.000028  -0.000001  -0.002255
    15  H   -0.025121   0.383344   0.001186   0.001240   0.000002  -0.023199
    16  H   -0.000493  -0.001113   0.376478  -0.001248  -0.025468   0.000101
    17  H   -0.000451  -0.001356  -0.001777   0.381081  -0.021949  -0.022882
    18  H    0.000009   0.001244   0.001136   0.382723  -0.020923  -0.022158
    19  H   -0.000001   0.000108  -0.024143  -0.023577   0.379552  -0.002020
    20  H   -0.003074  -0.021291   0.000015  -0.021594   0.001188   0.382401
    21  H    0.001306  -0.022525   0.000035  -0.023416  -0.001758   0.381507
    22  H   -0.003033  -0.020763  -0.021366   0.000014   0.001146   0.001235
    23  H    0.001299  -0.021544  -0.022738   0.000088  -0.001969  -0.001363
    24  H    0.000001  -0.000041  -0.041190  -0.000027   0.000469  -0.000001
    25  H    0.000000   0.000000   0.001030  -0.004755  -0.023194   0.000040
    26  H    0.000000   0.000000  -0.000545   0.000032  -0.001302   0.000000
    27  H   -0.000001   0.000001  -0.000096  -0.000480  -0.001806  -0.000005
    28  H    0.000000   0.000000   0.000029   0.000006   0.001118   0.000000
    29  H    0.000000   0.000000   0.000116  -0.000004  -0.000907   0.000000
    30  H    0.000000   0.000000   0.000020   0.000029  -0.002842  -0.000001
    31  H    0.000000   0.000000  -0.000011  -0.000016   0.001160   0.000000
              7          8          9         10         11         12
     1  C   -0.024030   0.000001   0.000000   0.000000   0.000000   0.382447
     2  C    0.362388   0.000241   0.000002   0.000000   0.000000  -0.019915
     3  C    0.360132   0.266439  -0.018115  -0.002676  -0.000099  -0.000446
     4  C   -0.003808   0.000234  -0.022393  -0.000995   0.000675  -0.000385
     5  C   -0.023471  -0.018726   0.358313  -0.020595  -0.021560   0.000045
     6  C   -0.024122   0.000001   0.000649   0.000001  -0.000005  -0.001674
     7  C    4.766624  -0.020764   0.000549   0.000008  -0.000005  -0.001631
     8  O   -0.020764   7.847384  -0.000222  -0.000045  -0.000711   0.000000
     9  C    0.000549  -0.000222   4.744644   0.363848   0.364066   0.000002
    10  C    0.000008  -0.000045   0.363848   4.742656  -0.025872   0.000000
    11  C   -0.000005  -0.000711   0.364066  -0.025872   4.743786   0.000000
    12  H   -0.001631   0.000000   0.000002   0.000000   0.000000   0.633209
    13  H   -0.002277   0.000000   0.000000   0.000000   0.000000  -0.022045
    14  H    0.001258   0.000000   0.000000   0.000000   0.000000  -0.022024
    15  H   -0.023133  -0.000004   0.000001   0.000000   0.000000   0.001916
    16  H   -0.024412  -0.016486  -0.001612  -0.000540   0.000020  -0.000568
    17  H    0.000091   0.000001  -0.001809  -0.000528   0.000000  -0.000548
    18  H    0.000006  -0.000004  -0.002667   0.000054   0.000028  -0.000003
    19  H   -0.002175  -0.000591  -0.023797   0.001112  -0.004216  -0.000003
    20  H    0.001243   0.000000  -0.000013   0.000000   0.000000   0.000018
    21  H   -0.001349  -0.000001   0.000004  -0.000001   0.000000  -0.000002
    22  H    0.381598  -0.000586  -0.000012   0.000000   0.000000   0.000017
    23  H    0.379954  -0.000743   0.000002   0.000000   0.000000  -0.000003
    24  H    0.002718   0.258631   0.000092  -0.000184  -0.001128   0.000002
    25  H   -0.000014  -0.000009   0.381997  -0.024675  -0.025768   0.000000
    26  H    0.000002  -0.000189  -0.020686   0.381677  -0.002499   0.000000
    27  H   -0.000002   0.000005  -0.019749   0.382581   0.001319   0.000001
    28  H    0.000000   0.000000  -0.019843   0.382677  -0.002135   0.000000
    29  H   -0.000003  -0.000753  -0.020156  -0.002644   0.382452   0.000000
    30  H   -0.000001   0.000020  -0.019971   0.001293   0.382866   0.000000
    31  H    0.000000   0.000011  -0.020296  -0.001737   0.381675   0.000000
             13         14         15         16         17         18
     1  C    0.382419   0.382346  -0.025121  -0.000493  -0.000451   0.000009
     2  C   -0.020259  -0.020262   0.383344  -0.001113  -0.001356   0.001244
     3  C    0.000020   0.000009   0.001186   0.376478  -0.001777   0.001136
     4  C    0.000005   0.000028   0.001240  -0.001248   0.381081   0.382723
     5  C   -0.000002  -0.000001   0.000002  -0.025468  -0.021949  -0.020923
     6  C    0.001255  -0.002255  -0.023199   0.000101  -0.022882  -0.022158
     7  C   -0.002277   0.001258  -0.023133  -0.024412   0.000091   0.000006
     8  O    0.000000   0.000000  -0.000004  -0.016486   0.000001  -0.000004
     9  C    0.000000   0.000000   0.000001  -0.001612  -0.001809  -0.002667
    10  C    0.000000   0.000000   0.000000  -0.000540  -0.000528   0.000054
    11  C    0.000000   0.000000   0.000000   0.000020   0.000000   0.000028
    12  H   -0.022045  -0.022024   0.001916  -0.000568  -0.000548  -0.000003
    13  H    0.630308  -0.021510  -0.002464   0.000046  -0.000003   0.000000
    14  H   -0.021510   0.630769  -0.002492  -0.000001   0.000050  -0.000004
    15  H   -0.002464  -0.002492   0.648147  -0.000010  -0.000007  -0.000032
    16  H    0.000046  -0.000001  -0.000010   0.662140   0.000264  -0.000010
    17  H   -0.000003   0.000050  -0.000007   0.000264   0.646455  -0.023757
    18  H    0.000000  -0.000004  -0.000032  -0.000010  -0.023757   0.641756
    19  H    0.000000   0.000000  -0.000017   0.001820   0.001886  -0.002577
    20  H    0.000034   0.000194  -0.001314  -0.000007  -0.002748  -0.001861
    21  H   -0.000035   0.000029  -0.003632   0.000003   0.001981  -0.003112
    22  H    0.000192   0.000034  -0.001376  -0.002839  -0.000008   0.000002
    23  H    0.000027  -0.000035  -0.003619   0.001923   0.000004  -0.000010
    24  H    0.000000   0.000000   0.000001  -0.008056   0.000002   0.000000
    25  H    0.000000   0.000000   0.000000  -0.000003   0.000028   0.000054
    26  H    0.000000   0.000000   0.000000  -0.000798   0.000029  -0.000002
    27  H    0.000000   0.000000   0.000000  -0.000091  -0.000338   0.000035
    28  H    0.000000   0.000000   0.000000   0.000007  -0.000009  -0.000004
    29  H    0.000000   0.000000   0.000000   0.000029   0.000000  -0.000001
    30  H    0.000000   0.000000   0.000000  -0.000001   0.000000   0.000007
    31  H    0.000000   0.000000   0.000000  -0.000001   0.000000  -0.000001
             19         20         21         22         23         24
     1  C   -0.000001  -0.003074   0.001306  -0.003033   0.001299   0.000001
     2  C    0.000108  -0.021291  -0.022525  -0.020763  -0.021544  -0.000041
     3  C   -0.024143   0.000015   0.000035  -0.021366  -0.022738  -0.041190
     4  C   -0.023577  -0.021594  -0.023416   0.000014   0.000088  -0.000027
     5  C    0.379552   0.001188  -0.001758   0.001146  -0.001969   0.000469
     6  C   -0.002020   0.382401   0.381507   0.001235  -0.001363  -0.000001
     7  C   -0.002175   0.001243  -0.001349   0.381598   0.379954   0.002718
     8  O   -0.000591   0.000000  -0.000001  -0.000586  -0.000743   0.258631
     9  C   -0.023797  -0.000013   0.000004  -0.000012   0.000002   0.000092
    10  C    0.001112   0.000000  -0.000001   0.000000   0.000000  -0.000184
    11  C   -0.004216   0.000000   0.000000   0.000000   0.000000  -0.001128
    12  H   -0.000003   0.000018  -0.000002   0.000017  -0.000003   0.000002
    13  H    0.000000   0.000034  -0.000035   0.000192   0.000027   0.000000
    14  H    0.000000   0.000194   0.000029   0.000034  -0.000035   0.000000
    15  H   -0.000017  -0.001314  -0.003632  -0.001376  -0.003619   0.000001
    16  H    0.001820  -0.000007   0.000003  -0.002839   0.001923  -0.008056
    17  H    0.001886  -0.002748   0.001981  -0.000008   0.000004   0.000002
    18  H   -0.002577  -0.001861  -0.003112   0.000002  -0.000010   0.000000
    19  H    0.647418   0.000010   0.000331   0.000004   0.000238   0.000006
    20  H    0.000010   0.639977  -0.023338  -0.000033   0.000008   0.000000
    21  H    0.000331  -0.023338   0.645427   0.000003   0.000175   0.000000
    22  H    0.000004  -0.000033   0.000003   0.633912  -0.023937   0.000037
    23  H    0.000238   0.000008   0.000175  -0.023937   0.636275   0.000025
    24  H    0.000006   0.000000   0.000000   0.000037   0.000025   0.611741
    25  H   -0.000798  -0.000002   0.000003   0.000000  -0.000001   0.000003
    26  H   -0.000002   0.000000   0.000000   0.000001   0.000000   0.000057
    27  H    0.000009   0.000001   0.000000   0.000000   0.000000  -0.000001
    28  H   -0.000028   0.000000   0.000000   0.000000   0.000000  -0.000004
    29  H    0.000037   0.000000   0.000000   0.000000   0.000000  -0.000939
    30  H    0.000146   0.000000   0.000000   0.000000   0.000000  -0.000005
    31  H    0.000055   0.000000   0.000000   0.000000   0.000000   0.000019
             25         26         27         28         29         30
     1  C    0.000000   0.000000  -0.000001   0.000000   0.000000   0.000000
     2  C    0.000000   0.000000   0.000001   0.000000   0.000000   0.000000
     3  C    0.001030  -0.000545  -0.000096   0.000029   0.000116   0.000020
     4  C   -0.004755   0.000032  -0.000480   0.000006  -0.000004   0.000029
     5  C   -0.023194  -0.001302  -0.001806   0.001118  -0.000907  -0.002842
     6  C    0.000040   0.000000  -0.000005   0.000000   0.000000  -0.000001
     7  C   -0.000014   0.000002  -0.000002   0.000000  -0.000003  -0.000001
     8  O   -0.000009  -0.000189   0.000005   0.000000  -0.000753   0.000020
     9  C    0.381997  -0.020686  -0.019749  -0.019843  -0.020156  -0.019971
    10  C   -0.024675   0.381677   0.382581   0.382677  -0.002644   0.001293
    11  C   -0.025768  -0.002499   0.001319  -0.002135   0.382452   0.382866
    12  H    0.000000   0.000000   0.000001   0.000000   0.000000   0.000000
    13  H    0.000000   0.000000   0.000000   0.000000   0.000000   0.000000
    14  H    0.000000   0.000000   0.000000   0.000000   0.000000   0.000000
    15  H    0.000000   0.000000   0.000000   0.000000   0.000000   0.000000
    16  H   -0.000003  -0.000798  -0.000091   0.000007   0.000029  -0.000001
    17  H    0.000028   0.000029  -0.000338  -0.000009   0.000000   0.000000
    18  H    0.000054  -0.000002   0.000035  -0.000004  -0.000001   0.000007
    19  H   -0.000798  -0.000002   0.000009  -0.000028   0.000037   0.000146
    20  H   -0.000002   0.000000   0.000001   0.000000   0.000000   0.000000
    21  H    0.000003   0.000000   0.000000   0.000000   0.000000   0.000000
    22  H    0.000000   0.000001   0.000000   0.000000   0.000000   0.000000
    23  H   -0.000001   0.000000   0.000000   0.000000   0.000000   0.000000
    24  H    0.000003   0.000057  -0.000001  -0.000004  -0.000939  -0.000005
    25  H    0.653070   0.001942  -0.001931  -0.002979   0.001965  -0.001741
    26  H    0.001942   0.640457  -0.021929  -0.022188   0.000390   0.000014
    27  H   -0.001931  -0.021929   0.629128  -0.021697   0.000017  -0.000036
    28  H   -0.002979  -0.022188  -0.021697   0.628043  -0.000020   0.000024
    29  H    0.001965   0.000390   0.000017  -0.000020   0.631913  -0.021350
    30  H   -0.001741   0.000014  -0.000036   0.000024  -0.021350   0.626158
    31  H   -0.003626  -0.000009   0.000015   0.000129  -0.022612  -0.021681
             31
     1  C    0.000000
     2  C    0.000000
     3  C   -0.000011
     4  C   -0.000016
     5  C    0.001160
     6  C    0.000000
     7  C    0.000000
     8  O    0.000011
     9  C   -0.020296
    10  C   -0.001737
    11  C    0.381675
    12  H    0.000000
    13  H    0.000000
    14  H    0.000000
    15  H    0.000000
    16  H   -0.000001
    17  H    0.000000
    18  H   -0.000001
    19  H    0.000055
    20  H    0.000000
    21  H    0.000000
    22  H    0.000000
    23  H    0.000000
    24  H    0.000019
    25  H   -0.003626
    26  H   -0.000009
    27  H    0.000015
    28  H    0.000129
    29  H   -0.022612
    30  H   -0.021681
    31  H    0.634928
 Mulliken atomic charges:
              1
     1  C   -0.174847
     2  C   -0.024496
     3  C    0.075998
     4  C   -0.101969
     5  C   -0.039900
     6  C   -0.100362
     7  C   -0.105377
     8  O   -0.313130
     9  C   -0.022828
    10  C   -0.175417
    11  C   -0.172889
    12  H    0.051592
    13  H    0.054289
    14  H    0.053867
    15  H    0.050584
    16  H    0.040927
    17  H    0.046301
    18  H    0.050070
    19  H    0.051214
    20  H    0.050188
    21  H    0.048364
    22  H    0.055757
    23  H    0.055944
    24  H    0.177769
    25  H    0.049362
    26  H    0.045548
    27  H    0.055051
    28  H    0.056874
    29  H    0.052469
    30  H    0.057050
    31  H    0.051996
 Sum of Mulliken atomic charges =   0.00000
 Mulliken charges with hydrogens summed into heavy atoms:
              1
     1  C   -0.015099
     2  C    0.026088
     3  C    0.116925
     4  C   -0.005597
     5  C    0.011314
     6  C   -0.001810
     7  C    0.006324
     8  O   -0.135361
     9  C    0.026534
    10  C   -0.017944
    11  C   -0.011374
 Sum of Mulliken charges with hydrogens summed into heavy atoms =   0.00000
 Electronic spatial extent (au):  <R**2>=           2032.5462
 Charge=              0.0000 electrons
 Dipole moment (field-independent basis, Debye):
    X=              0.1008    Y=             -1.0572    Z=              0.8771  Tot=              1.3774
 Quadrupole moment (field-independent basis, Debye-Ang):
   XX=            -66.3799   YY=            -70.9980   ZZ=            -66.9143
   XY=             -0.3121   XZ=              1.5725   YZ=              2.3311
 Traceless Quadrupole moment (field-independent basis, Debye-Ang):
   XX=              1.7175   YY=             -2.9006   ZZ=              1.1831
   XY=             -0.3121   XZ=              1.5725   YZ=              2.3311
 Octapole moment (field-independent basis, Debye-Ang**2):
  XXX=              6.6591  YYY=              2.0797  ZZZ=             -2.6786  XYY=              1.0773
  XXY=              5.3253  XXZ=              1.8474  XZZ=              2.3404  YZZ=              5.8219
  YYZ=              5.3843  XYZ=              3.5210
 Hexadecapole moment (field-independent basis, Debye-Ang**3):
 XXXX=          -1665.6519 YYYY=           -569.4126 ZZZZ=           -368.7478 XXXY=              7.4146
 XXXZ=             10.3549 YYYX=              8.7655 YYYZ=             12.3547 ZZZX=             -0.0972
 ZZZY=              0.5863 XXYY=           -357.9230 XXZZ=           -344.8817 YYZZ=           -149.2936
 XXYZ=              5.1673 YYXZ=              4.9003 ZZXY=              3.2566
 N-N= 6.986258938377D+02 E-N=-2.469174631452D+03  KE= 4.555441771140D+02
 ******************************Gaussian NBO Version 3.1******************************
             N A T U R A L   A T O M I C   O R B I T A L   A N D
          N A T U R A L   B O N D   O R B I T A L   A N A L Y S I S
 ******************************Gaussian NBO Version 3.1******************************
       /RESON  / : Allow strongly delocalized NBO set
       /NLMO   / : Form Natural Localized Molecular Orbitals
       /NMR /    : Analyze NMR Sheilding Tensor 

 Analyzing the SCF density

 Job title: comment                                                         

 Storage needed:     19864 in NPA,     23691 in NBO,     45933 in NLMO (  33549317 available)


 NATURAL POPULATIONS:  Natural atomic orbital occupancies 
                                                          
   NAO  Atom  No  lang   Type(AO)    Occupancy      Energy
 ----------------------------------------------------------
     1    C    1  S      Cor( 1S)     1.99997     -10.96502
     2    C    1  S      Val( 2S)     1.07957      -0.18206
     3    C    1  px     Val( 2p)     1.02498       0.08218
     4    C    1  py     Val( 2p)     1.02850       0.08300
     5    C    1  pz     Val( 2p)     0.99696       0.08854

     6    C    2  S      Cor( 1S)     1.99997     -10.98890
     7    C    2  S      Val( 2S)     1.07895      -0.19107
     8    C    2  px     Val( 2p)     0.98230       0.10333
     9    C    2  py     Val( 2p)     0.96176       0.10870
    10    C    2  pz     Val( 2p)     0.96324       0.10950

    11    C    3  S      Cor( 1S)     1.99989     -11.03358
    12    C    3  S      Val( 2S)     1.08652      -0.21496
    13    C    3  px     Val( 2p)     0.92274       0.09277
    14    C    3  py     Val( 2p)     0.86514       0.11880
    15    C    3  pz     Val( 2p)     0.98239       0.09173

    16    C    4  S      Cor( 1S)     1.99996     -10.97445
    17    C    4  S      Val( 2S)     1.08527      -0.18975
    18    C    4  px     Val( 2p)     0.97572       0.09789
    19    C    4  py     Val( 2p)     0.98975       0.09445
    20    C    4  pz     Val( 2p)     1.01292       0.09416

    21    C    5  S      Cor( 1S)     1.99995     -10.98549
    22    C    5  S      Val( 2S)     1.10400      -0.21027
    23    C    5  px     Val( 2p)     0.95405       0.10839
    24    C    5  py     Val( 2p)     0.96271       0.10697
    25    C    5  pz     Val( 2p)     0.99902       0.09625

    26    C    6  S      Cor( 1S)     1.99996     -10.97372
    27    C    6  S      Val( 2S)     1.08289      -0.18703
    28    C    6  px     Val( 2p)     0.98314       0.09922
    29    C    6  py     Val( 2p)     0.99174       0.09783
    30    C    6  pz     Val( 2p)     1.00556       0.09245

    31    C    7  S      Cor( 1S)     1.99996     -10.97252
    32    C    7  S      Val( 2S)     1.09057      -0.19266
    33    C    7  px     Val( 2p)     0.97509       0.09881
    34    C    7  py     Val( 2p)     0.99226       0.09788
    35    C    7  pz     Val( 2p)     1.02390       0.08779

    36    O    8  S      Cor( 1S)     1.99999     -20.14019
    37    O    8  S      Val( 2S)     1.74933      -0.99800
    38    O    8  px     Val( 2p)     1.43182      -0.14573
    39    O    8  py     Val( 2p)     1.52518      -0.18855
    40    O    8  pz     Val( 2p)     1.62794      -0.23652

    41    C    9  S      Cor( 1S)     1.99996     -10.99240
    42    C    9  S      Val( 2S)     1.08583      -0.19867
    43    C    9  px     Val( 2p)     0.95327       0.10953
    44    C    9  py     Val( 2p)     0.99193       0.09693
    45    C    9  pz     Val( 2p)     0.95125       0.11303

    46    C   10  S      Cor( 1S)     1.99997     -10.97044
    47    C   10  S      Val( 2S)     1.07937      -0.18697
    48    C   10  px     Val( 2p)     1.03191       0.07586
    49    C   10  py     Val( 2p)     1.02375       0.07971
    50    C   10  pz     Val( 2p)     0.99602       0.08211

    51    C   11  S      Cor( 1S)     1.99997     -10.96339
    52    C   11  S      Val( 2S)     1.08100      -0.18058
    53    C   11  px     Val( 2p)     1.00699       0.08675
    54    C   11  py     Val( 2p)     1.01605       0.08916
    55    C   11  pz     Val( 2p)     1.02487       0.08428

    56    H   12  S      Val( 1S)     0.96562       0.07332

    57    H   13  S      Val( 1S)     0.96292       0.07448

    58    H   14  S      Val( 1S)     0.96328       0.07413

    59    H   15  S      Val( 1S)     0.97358       0.06815

    60    H   16  S      Val( 1S)     0.99383       0.04589

    61    H   17  S      Val( 1S)     0.97489       0.06967

    62    H   18  S      Val( 1S)     0.97081       0.07052

    63    H   19  S      Val( 1S)     0.97436       0.07019

    64    H   20  S      Val( 1S)     0.97043       0.07088

    65    H   21  S      Val( 1S)     0.97234       0.07075

    66    H   22  S      Val( 1S)     0.96525       0.07679

    67    H   23  S      Val( 1S)     0.96507       0.07784

    68    H   24  S      Val( 1S)     0.80964       0.08067

    69    H   25  S      Val( 1S)     0.97576       0.06565

    70    H   26  S      Val( 1S)     0.97097       0.06314

    71    H   27  S      Val( 1S)     0.96237       0.07154

    72    H   28  S      Val( 1S)     0.96029       0.07108

    73    H   29  S      Val( 1S)     0.96524       0.07812

    74    H   30  S      Val( 1S)     0.96049       0.07958

    75    H   31  S      Val( 1S)     0.96515       0.07389


 Summary of Natural Population Analysis:                  
                                                          
                                       Natural Population 
                Natural  -----------------------------------------------
    Atom  No    Charge         Core      Valence    Rydberg      Total
 -----------------------------------------------------------------------
      C    1   -0.12998      1.99997     4.13001    0.00000     6.12998
      C    2    0.01378      1.99997     3.98625    0.00000     5.98622
      C    3    0.14333      1.99989     3.85678    0.00000     5.85667
      C    4   -0.06361      1.99996     4.06365    0.00000     6.06361
      C    5   -0.01974      1.99995     4.01978    0.00000     6.01974
      C    6   -0.06329      1.99996     4.06332    0.00000     6.06329
      C    7   -0.08178      1.99996     4.08183    0.00000     6.08178
      O    8   -0.33426      1.99999     6.33427    0.00000     8.33426
      C    9    0.01775      1.99996     3.98229    0.00000     5.98225
      C   10   -0.13102      1.99997     4.13105    0.00000     6.13102
      C   11   -0.12888      1.99997     4.12891    0.00000     6.12888
      H   12    0.03438      0.00000     0.96562    0.00000     0.96562
      H   13    0.03708      0.00000     0.96292    0.00000     0.96292
      H   14    0.03672      0.00000     0.96328    0.00000     0.96328
      H   15    0.02642      0.00000     0.97358    0.00000     0.97358
      H   16    0.00617      0.00000     0.99383    0.00000     0.99383
      H   17    0.02511      0.00000     0.97489    0.00000     0.97489
      H   18    0.02919      0.00000     0.97081    0.00000     0.97081
      H   19    0.02564      0.00000     0.97436    0.00000     0.97436
      H   20    0.02957      0.00000     0.97043    0.00000     0.97043
      H   21    0.02766      0.00000     0.97234    0.00000     0.97234
      H   22    0.03475      0.00000     0.96525    0.00000     0.96525
      H   23    0.03493      0.00000     0.96507    0.00000     0.96507
      H   24    0.19036      0.00000     0.80964    0.00000     0.80964
      H   25    0.02424      0.00000     0.97576    0.00000     0.97576
      H   26    0.02903      0.00000     0.97097    0.00000     0.97097
      H   27    0.03763      0.00000     0.96237    0.00000     0.96237
      H   28    0.03971      0.00000     0.96029    0.00000     0.96029
      H   29    0.03476      0.00000     0.96524    0.00000     0.96524
      H   30    0.03951      0.00000     0.96049    0.00000     0.96049
      H   31    0.03485      0.00000     0.96515    0.00000     0.96515
 =======================================================================
   * Total *    0.00000     21.99955    66.00045    0.00000    88.00000

                                 Natural Population      
 --------------------------------------------------------
   Core                      21.99955 ( 99.9980% of  22)
   Valence                   66.00045 (100.0007% of  66)
   Natural Minimal Basis     88.00000 (100.0000% of  88)
   Natural Rydberg Basis      0.00000 (  0.0000% of  88)
 --------------------------------------------------------

    Atom  No          Natural Electron Configuration
 ----------------------------------------------------------------------------
      C    1      [core]2S( 1.08)2p( 3.05)
      C    2      [core]2S( 1.08)2p( 2.91)
      C    3      [core]2S( 1.09)2p( 2.77)
      C    4      [core]2S( 1.09)2p( 2.98)
      C    5      [core]2S( 1.10)2p( 2.92)
      C    6      [core]2S( 1.08)2p( 2.98)
      C    7      [core]2S( 1.09)2p( 2.99)
      O    8      [core]2S( 1.75)2p( 4.58)
      C    9      [core]2S( 1.09)2p( 2.90)
      C   10      [core]2S( 1.08)2p( 3.05)
      C   11      [core]2S( 1.08)2p( 3.05)
      H   12            1S( 0.97)
      H   13            1S( 0.96)
      H   14            1S( 0.96)
      H   15            1S( 0.97)
      H   16            1S( 0.99)
      H   17            1S( 0.97)
      H   18            1S( 0.97)
      H   19            1S( 0.97)
      H   20            1S( 0.97)
      H   21            1S( 0.97)
      H   22            1S( 0.97)
      H   23            1S( 0.97)
      H   24            1S( 0.81)
      H   25            1S( 0.98)
      H   26            1S( 0.97)
      H   27            1S( 0.96)
      H   28            1S( 0.96)
      H   29            1S( 0.97)
      H   30            1S( 0.96)
      H   31            1S( 0.97)


 NATURAL BOND ORBITAL ANALYSIS:

                       Occupancies       Lewis Structure    Low   High
           Occ.    -------------------  -----------------   occ   occ
  Cycle   Thresh.   Lewis   Non-Lewis     CR  BD  3C  LP    (L)   (NL)   Dev
 =============================================================================
   1(1)    1.90    87.63589   0.36411     11  31   0   2     0      0    0.02
 -----------------------------------------------------------------------------

 Structure accepted: No low occupancy Lewis orbitals

 --------------------------------------------------------
   Core                     21.99955 ( 99.998% of  22)
   Valence Lewis            65.63635 ( 99.449% of  66)
  ==================       ============================
   Total Lewis              87.63589 ( 99.586% of  88)
  -----------------------------------------------------
   Valence non-Lewis         0.36411 (  0.414% of  88)
   Rydberg non-Lewis         0.00000 (  0.000% of  88)
  ==================       ============================
   Total non-Lewis           0.36411 (  0.414% of  88)
 --------------------------------------------------------


       (Occupancy)   Bond orbital/ Coefficients/ Hybrids
 ---------------------------------------------------------------------------------
     1. (1.99036) BD ( 1) C   1 - C   2  
                ( 50.99%)   0.7140* C   1 s( 25.84%)p 2.87( 74.16%)
                                            0.0001  0.5084  0.2573  0.1534 -0.8074
                ( 49.01%)   0.7001* C   2 s( 25.09%)p 2.99( 74.91%)
                                            0.0000  0.5009 -0.2131 -0.1644  0.8226
     2. (1.99501) BD ( 1) C   1 - H  12  
                ( 51.78%)   0.7196* C   1 s( 24.91%)p 3.01( 75.09%)
                                            0.0000  0.4991  0.6787 -0.2311  0.4867
                ( 48.22%)   0.6944* H  12 s(100.00%)
                                            1.0000
     3. (1.99486) BD ( 1) C   1 - H  13  
                ( 51.86%)   0.7201* C   1 s( 24.63%)p 3.06( 75.37%)
                                            0.0000  0.4963 -0.3604  0.7159  0.3336
                ( 48.14%)   0.6938* H  13 s(100.00%)
                                            1.0000
     4. (1.99485) BD ( 1) C   1 - H  14  
                ( 51.84%)   0.7200* C   1 s( 24.62%)p 3.06( 75.38%)
                                            0.0000  0.4961 -0.5859 -0.6408  0.0039
                ( 48.16%)   0.6940* H  14 s(100.00%)
                                            1.0000
     5. (1.98521) BD ( 1) C   2 - C   6  
                ( 49.68%)   0.7048* C   2 s( 25.15%)p 2.98( 74.85%)
                                            0.0000  0.5015  0.3478 -0.7074 -0.3565
                ( 50.32%)   0.7094* C   6 s( 25.41%)p 2.94( 74.59%)
                                            0.0001  0.5041 -0.3195  0.6987  0.3945
     6. (1.98346) BD ( 1) C   2 - C   7  
                ( 49.50%)   0.7036* C   2 s( 25.15%)p 2.98( 74.85%)
                                            0.0000  0.5015  0.5704  0.6499 -0.0278
                ( 50.50%)   0.7106* C   7 s( 25.72%)p 2.89( 74.28%)
                                            0.0001  0.5071 -0.5394 -0.6693  0.0634
     7. (1.98426) BD ( 1) C   2 - H  15  
                ( 51.20%)   0.7156* C   2 s( 24.62%)p 3.06( 75.38%)
                                            0.0000  0.4962 -0.7130  0.2239 -0.4420
                ( 48.80%)   0.6986* H  15 s(100.00%)
                                            1.0000
     8. (1.98369) BD ( 1) C   3 - C   5  
                ( 49.92%)   0.7065* C   3 s( 26.16%)p 2.82( 73.84%)
                                            0.0001  0.5115  0.3382 -0.6808 -0.4007
                ( 50.08%)   0.7077* C   5 s( 25.45%)p 2.93( 74.55%)
                                            0.0000  0.5044 -0.3016  0.6838  0.4325
     9. (1.98663) BD ( 1) C   3 - C   7  
                ( 49.92%)   0.7066* C   3 s( 26.04%)p 2.84( 73.96%)
                                            0.0000  0.5103 -0.7780  0.1836 -0.3171
                ( 50.08%)   0.7076* C   7 s( 25.20%)p 2.97( 74.80%)
                                            0.0001  0.5020  0.7790 -0.2184  0.3058
    10. (1.98849) BD ( 1) C   3 - O   8  
                ( 41.09%)   0.6410* C   3 s( 22.42%)p 3.46( 77.58%)
                                            0.0000  0.4735  0.5270  0.6938 -0.1293
                ( 58.91%)   0.7675* O   8 s( 16.38%)p 5.11( 83.62%)
                                            0.0000  0.4047 -0.4820 -0.7554  0.1823
    11. (1.98843) BD ( 1) C   3 - H  16  
                ( 50.56%)   0.7111* C   3 s( 25.37%)p 2.94( 74.63%)
                                            0.0000  0.5037 -0.0507 -0.1469  0.8498
                ( 49.44%)   0.7031* H  16 s(100.00%)
                                            1.0000
    12. (1.98319) BD ( 1) C   4 - C   5  
                ( 50.52%)   0.7107* C   4 s( 25.30%)p 2.95( 74.70%)
                                            0.0001  0.5030  0.5382  0.6731 -0.0660
                ( 49.48%)   0.7034* C   5 s( 24.66%)p 3.06( 75.34%)
                                            0.0000  0.4966 -0.5471 -0.6672  0.0943
    13. (1.98997) BD ( 1) C   4 - C   6  
                ( 49.99%)   0.7070* C   4 s( 25.23%)p 2.96( 74.77%)
                                            0.0000  0.5023 -0.7834  0.2226 -0.2905
                ( 50.01%)   0.7072* C   6 s( 25.32%)p 2.95( 74.68%)
                                            0.0000  0.5032  0.7853 -0.1804  0.3125
    14. (1.99012) BD ( 1) C   4 - H  17  
                ( 51.30%)   0.7162* C   4 s( 24.72%)p 3.04( 75.28%)
                                            0.0000  0.4972 -0.0584 -0.2434  0.8307
                ( 48.70%)   0.6979* H  17 s(100.00%)
                                            1.0000
    15. (1.98940) BD ( 1) C   4 - H  18  
                ( 51.42%)   0.7171* C   4 s( 24.75%)p 3.04( 75.25%)
                                            0.0000  0.4975  0.3053 -0.6619 -0.4703
                ( 48.58%)   0.6970* H  18 s(100.00%)
                                            1.0000
    16. (1.97902) BD ( 1) C   5 - C   9  
                ( 49.86%)   0.7061* C   5 s( 25.43%)p 2.93( 74.57%)
                                            0.0001  0.5042  0.7783 -0.2201  0.3026
                ( 50.14%)   0.7081* C   9 s( 25.53%)p 2.92( 74.47%)
                                            0.0001  0.5053 -0.7850  0.2808 -0.2229
    17. (1.98368) BD ( 1) C   5 - H  19  
                ( 51.20%)   0.7155* C   5 s( 24.47%)p 3.09( 75.53%)
                                            0.0000  0.4947  0.0634  0.1969 -0.8441
                ( 48.80%)   0.6986* H  19 s(100.00%)
                                            1.0000
    18. (1.98977) BD ( 1) C   6 - H  20  
                ( 51.46%)   0.7173* C   6 s( 24.96%)p 3.01( 75.04%)
                                            0.0000  0.4996 -0.5270 -0.6750  0.1302
                ( 48.54%)   0.6967* H  20 s(100.00%)
                                            1.0000
    19. (1.99035) BD ( 1) C   6 - H  21  
                ( 51.38%)   0.7168* C   6 s( 24.31%)p 3.11( 75.69%)
                                            0.0000  0.4931  0.0594  0.1538 -0.8542
                ( 48.62%)   0.6973* H  21 s(100.00%)
                                            1.0000
    20. (1.98931) BD ( 1) C   7 - H  22  
                ( 51.71%)   0.7191* C   7 s( 24.88%)p 3.02( 75.12%)
                                            0.0000  0.4988 -0.3107  0.6711  0.4519
                ( 48.29%)   0.6949* H  22 s(100.00%)
                                            1.0000
    21. (1.98929) BD ( 1) C   7 - H  23  
                ( 51.72%)   0.7192* C   7 s( 24.20%)p 3.13( 75.80%)
                                            0.0000  0.4920  0.0761  0.2323 -0.8356
                ( 48.28%)   0.6948* H  23 s(100.00%)
                                            1.0000
    22. (1.98946) BD ( 1) O   8 - H  24  
                ( 59.54%)   0.7716* O   8 s( 16.75%)p 4.97( 83.25%)
                                            0.0000  0.4092  0.6326 -0.0259  0.6570
                ( 40.46%)   0.6361* H  24 s(100.00%)
                                            1.0000
    23. (1.99026) BD ( 1) C   9 - C  10  
                ( 48.83%)   0.6988* C   9 s( 25.26%)p 2.96( 74.74%)
                                            0.0000  0.5026  0.0724 -0.0183  0.8613
                ( 51.17%)   0.7154* C  10 s( 25.86%)p 2.87( 74.14%)
                                            0.0001  0.5086 -0.1066  0.0533 -0.8527
    24. (1.98972) BD ( 1) C   9 - C  11  
                ( 49.11%)   0.7008* C   9 s( 25.06%)p 2.99( 74.94%)
                                            0.0000  0.5006  0.6038  0.5242 -0.3317
                ( 50.89%)   0.7134* C  11 s( 25.85%)p 2.87( 74.15%)
                                            0.0001  0.5084 -0.6345 -0.4700  0.3435
    25. (1.98362) BD ( 1) C   9 - H  25  
                ( 51.09%)   0.7148* C   9 s( 24.16%)p 3.14( 75.84%)
                                            0.0000  0.4915  0.1180 -0.8038 -0.3137
                ( 48.91%)   0.6993* H  25 s(100.00%)
                                            1.0000
    26. (1.99448) BD ( 1) C  10 - H  26  
                ( 51.49%)   0.7176* C  10 s( 24.72%)p 3.04( 75.28%)
                                            0.0000  0.4972 -0.0461  0.7918  0.3518
                ( 48.51%)   0.6965* H  26 s(100.00%)
                                            1.0000
    27. (1.99447) BD ( 1) C  10 - H  27  
                ( 51.90%)   0.7204* C  10 s( 24.83%)p 3.03( 75.17%)
                                            0.0000  0.4983 -0.6184 -0.5014  0.3432
                ( 48.10%)   0.6935* H  27 s(100.00%)
                                            1.0000
    28. (1.99440) BD ( 1) C  10 - H  28  
                ( 51.98%)   0.7210* C  10 s( 24.58%)p 3.07( 75.42%)
                                            0.0000  0.4958  0.7772 -0.3447  0.1770
                ( 48.02%)   0.6930* H  28 s(100.00%)
                                            1.0000
    29. (1.99475) BD ( 1) C  11 - H  29  
                ( 51.81%)   0.7198* C  11 s( 24.96%)p 3.01( 75.04%)
                                            0.0000  0.4996  0.0045  0.7915  0.3519
                ( 48.19%)   0.6942* H  29 s(100.00%)
                                            1.0000
    30. (1.99474) BD ( 1) C  11 - H  30  
                ( 51.99%)   0.7210* C  11 s( 24.83%)p 3.03( 75.17%)
                                            0.0000  0.4983 -0.1142  0.0671 -0.8568
                ( 48.01%)   0.6929* H  30 s(100.00%)
                                            1.0000
    31. (1.99474) BD ( 1) C  11 - H  31  
                ( 51.74%)   0.7193* C  11 s( 24.36%)p 3.11( 75.64%)
                                            0.0000  0.4935  0.7644 -0.3848  0.1550
                ( 48.26%)   0.6947* H  31 s(100.00%)
                                            1.0000
    32. (1.99997) CR ( 1) C   1           s(100.00%)
                                            1.0000  0.0000  0.0000  0.0000  0.0001
    33. (1.99997) CR ( 1) C   2           s(100.00%)
                                            1.0000  0.0000  0.0000  0.0000  0.0000
    34. (1.99989) CR ( 1) C   3           s(100.00%)
                                            1.0000  0.0000  0.0000  0.0001  0.0000
    35. (1.99996) CR ( 1) C   4           s(100.00%)
                                            1.0000  0.0000  0.0000 -0.0001  0.0000
    36. (1.99995) CR ( 1) C   5           s(100.00%)
                                            1.0000  0.0000  0.0000  0.0000  0.0000
    37. (1.99996) CR ( 1) C   6           s(100.00%)
                                            1.0000  0.0000  0.0000 -0.0001 -0.0001
    38. (1.99996) CR ( 1) C   7           s(100.00%)
                                            1.0000 -0.0001  0.0000  0.0001  0.0000
    39. (1.99999) CR ( 1) O   8           s(100.00%)
                                            1.0000  0.0000  0.0000  0.0000  0.0000
    40. (1.99996) CR ( 1) C   9           s(100.00%)
                                            1.0000  0.0000  0.0001  0.0000  0.0000
    41. (1.99997) CR ( 1) C  10           s(100.00%)
                                            1.0000  0.0000  0.0000  0.0000  0.0001
    42. (1.99997) CR ( 1) C  11           s(100.00%)
                                            1.0000  0.0000  0.0001  0.0000  0.0000
    43. (1.99365) LP ( 1) O   8           s( 66.57%)p 0.50( 33.43%)
                                            0.0000  0.8159 -0.0375  0.3504 -0.4583
    44. (1.97274) LP ( 2) O   8           s(  0.30%)p99.99( 99.70%)
                                            0.0000  0.0549 -0.6050  0.5531  0.5701
    45. (0.01131) BD*( 1) C   1 - C   2  
                ( 49.01%)   0.7001* C   1 s( 25.84%)p 2.87( 74.16%)
                                           -0.0001 -0.5084 -0.2573 -0.1534  0.8074
                ( 50.99%)  -0.7140* C   2 s( 25.09%)p 2.99( 74.91%)
                                            0.0000 -0.5009  0.2131  0.1644 -0.8226
    46. (0.00684) BD*( 1) C   1 - H  12  
                ( 48.22%)   0.6944* C   1 s( 24.91%)p 3.01( 75.09%)
                                            0.0000 -0.4991 -0.6787  0.2311 -0.4867
                ( 51.78%)  -0.7196* H  12 s(100.00%)
                                           -1.0000
    47. (0.00495) BD*( 1) C   1 - H  13  
                ( 48.14%)   0.6938* C   1 s( 24.63%)p 3.06( 75.37%)
                                            0.0000 -0.4963  0.3604 -0.7159 -0.3336
                ( 51.86%)  -0.7201* H  13 s(100.00%)
                                           -1.0000
    48. (0.00496) BD*( 1) C   1 - H  14  
                ( 48.16%)   0.6940* C   1 s( 24.62%)p 3.06( 75.38%)
                                            0.0000 -0.4961  0.5859  0.6408 -0.0039
                ( 51.84%)  -0.7200* H  14 s(100.00%)
                                           -1.0000
    49. (0.01638) BD*( 1) C   2 - C   6  
                ( 50.32%)   0.7094* C   2 s( 25.15%)p 2.98( 74.85%)
                                            0.0000  0.5015  0.3478 -0.7074 -0.3565
                ( 49.68%)  -0.7048* C   6 s( 25.41%)p 2.94( 74.59%)
                                            0.0001  0.5041 -0.3195  0.6987  0.3945
    50. (0.01506) BD*( 1) C   2 - C   7  
                ( 50.50%)   0.7106* C   2 s( 25.15%)p 2.98( 74.85%)
                                            0.0000  0.5015  0.5704  0.6499 -0.0278
                ( 49.50%)  -0.7036* C   7 s( 25.72%)p 2.89( 74.28%)
                                            0.0001  0.5071 -0.5394 -0.6693  0.0634
    51. (0.01033) BD*( 1) C   2 - H  15  
                ( 48.80%)   0.6986* C   2 s( 24.62%)p 3.06( 75.38%)
                                            0.0000 -0.4962  0.7130 -0.2239  0.4420
                ( 51.20%)  -0.7156* H  15 s(100.00%)
                                           -1.0000
    52. (0.03524) BD*( 1) C   3 - C   5  
                ( 50.08%)   0.7077* C   3 s( 26.16%)p 2.82( 73.84%)
                                            0.0001  0.5115  0.3382 -0.6808 -0.4007
                ( 49.92%)  -0.7065* C   5 s( 25.45%)p 2.93( 74.55%)
                                            0.0000  0.5044 -0.3016  0.6838  0.4325
    53. (0.02319) BD*( 1) C   3 - C   7  
                ( 50.08%)   0.7076* C   3 s( 26.04%)p 2.84( 73.96%)
                                            0.0000  0.5103 -0.7780  0.1836 -0.3171
                ( 49.92%)  -0.7066* C   7 s( 25.20%)p 2.97( 74.80%)
                                            0.0001  0.5020  0.7790 -0.2184  0.3058
    54. (0.02125) BD*( 1) C   3 - O   8  
                ( 58.91%)   0.7675* C   3 s( 22.42%)p 3.46( 77.58%)
                                            0.0000  0.4735  0.5270  0.6938 -0.1293
                ( 41.09%)  -0.6410* O   8 s( 16.38%)p 5.11( 83.62%)
                                            0.0000  0.4047 -0.4820 -0.7554  0.1823
    55. (0.02135) BD*( 1) C   3 - H  16  
                ( 49.44%)   0.7031* C   3 s( 25.37%)p 2.94( 74.63%)
                                            0.0000 -0.5037  0.0507  0.1469 -0.8498
                ( 50.56%)  -0.7111* H  16 s(100.00%)
                                           -1.0000
    56. (0.01542) BD*( 1) C   4 - C   5  
                ( 49.48%)   0.7034* C   4 s( 25.30%)p 2.95( 74.70%)
                                           -0.0001 -0.5030 -0.5382 -0.6731  0.0660
                ( 50.52%)  -0.7107* C   5 s( 24.66%)p 3.06( 75.34%)
                                            0.0000 -0.4966  0.5471  0.6672 -0.0943
    57. (0.01197) BD*( 1) C   4 - C   6  
                ( 50.01%)   0.7072* C   4 s( 25.23%)p 2.96( 74.77%)
                                            0.0000  0.5023 -0.7834  0.2226 -0.2905
                ( 49.99%)  -0.7070* C   6 s( 25.32%)p 2.95( 74.68%)
                                            0.0000  0.5032  0.7853 -0.1804  0.3125
    58. (0.01106) BD*( 1) C   4 - H  17  
                ( 48.70%)   0.6979* C   4 s( 24.72%)p 3.04( 75.28%)
                                            0.0000 -0.4972  0.0584  0.2434 -0.8307
                ( 51.30%)  -0.7162* H  17 s(100.00%)
                                           -1.0000
    59. (0.00856) BD*( 1) C   4 - H  18  
                ( 48.58%)   0.6970* C   4 s( 24.75%)p 3.04( 75.25%)
                                            0.0000 -0.4975 -0.3053  0.6619  0.4703
                ( 51.42%)  -0.7171* H  18 s(100.00%)
                                           -1.0000
    60. (0.02270) BD*( 1) C   5 - C   9  
                ( 50.14%)   0.7081* C   5 s( 25.43%)p 2.93( 74.57%)
                                            0.0001  0.5042  0.7783 -0.2201  0.3026
                ( 49.86%)  -0.7061* C   9 s( 25.53%)p 2.92( 74.47%)
                                            0.0001  0.5053 -0.7850  0.2808 -0.2229
    61. (0.01221) BD*( 1) C   5 - H  19  
                ( 48.80%)   0.6986* C   5 s( 24.47%)p 3.09( 75.53%)
                                            0.0000 -0.4947 -0.0634 -0.1969  0.8441
                ( 51.20%)  -0.7155* H  19 s(100.00%)
                                           -1.0000
    62. (0.00886) BD*( 1) C   6 - H  20  
                ( 48.54%)   0.6967* C   6 s( 24.96%)p 3.01( 75.04%)
                                            0.0000 -0.4996  0.5270  0.6750 -0.1302
                ( 51.46%)  -0.7173* H  20 s(100.00%)
                                           -1.0000
    63. (0.00884) BD*( 1) C   6 - H  21  
                ( 48.62%)   0.6973* C   6 s( 24.31%)p 3.11( 75.69%)
                                            0.0000 -0.4931 -0.0594 -0.1538  0.8542
                ( 51.38%)  -0.7168* H  21 s(100.00%)
                                           -1.0000
    64. (0.00899) BD*( 1) C   7 - H  22  
                ( 48.29%)   0.6949* C   7 s( 24.88%)p 3.02( 75.12%)
                                            0.0000 -0.4988  0.3107 -0.6711 -0.4519
                ( 51.71%)  -0.7191* H  22 s(100.00%)
                                           -1.0000
    65. (0.00909) BD*( 1) C   7 - H  23  
                ( 48.28%)   0.6948* C   7 s( 24.20%)p 3.13( 75.80%)
                                            0.0000 -0.4920 -0.0761 -0.2323  0.8356
                ( 51.72%)  -0.7192* H  23 s(100.00%)
                                           -1.0000
    66. (0.00788) BD*( 1) O   8 - H  24  
                ( 40.46%)   0.6361* O   8 s( 16.75%)p 4.97( 83.25%)
                                            0.0000 -0.4092 -0.6326  0.0259 -0.6570
                ( 59.54%)  -0.7716* H  24 s(100.00%)
                                           -1.0000
    67. (0.01090) BD*( 1) C   9 - C  10  
                ( 51.17%)   0.7154* C   9 s( 25.26%)p 2.96( 74.74%)
                                            0.0000  0.5026  0.0724 -0.0183  0.8613
                ( 48.83%)  -0.6988* C  10 s( 25.86%)p 2.87( 74.14%)
                                            0.0001  0.5086 -0.1066  0.0533 -0.8527
    68. (0.01051) BD*( 1) C   9 - C  11  
                ( 50.89%)   0.7134* C   9 s( 25.06%)p 2.99( 74.94%)
                                            0.0000  0.5006  0.6038  0.5242 -0.3317
                ( 49.11%)  -0.7008* C  11 s( 25.85%)p 2.87( 74.15%)
                                            0.0001  0.5084 -0.6345 -0.4700  0.3435
    69. (0.01097) BD*( 1) C   9 - H  25  
                ( 48.91%)   0.6993* C   9 s( 24.16%)p 3.14( 75.84%)
                                            0.0000 -0.4915 -0.1180  0.8038  0.3137
                ( 51.09%)  -0.7148* H  25 s(100.00%)
                                           -1.0000
    70. (0.00667) BD*( 1) C  10 - H  26  
                ( 48.51%)   0.6965* C  10 s( 24.72%)p 3.04( 75.28%)
                                            0.0000 -0.4972  0.0461 -0.7918 -0.3518
                ( 51.49%)  -0.7176* H  26 s(100.00%)
                                           -1.0000
    71. (0.00601) BD*( 1) C  10 - H  27  
                ( 48.10%)   0.6935* C  10 s( 24.83%)p 3.03( 75.17%)
                                            0.0000 -0.4983  0.6184  0.5014 -0.3432
                ( 51.90%)  -0.7204* H  27 s(100.00%)
                                           -1.0000
    72. (0.00486) BD*( 1) C  10 - H  28  
                ( 48.02%)   0.6930* C  10 s( 24.58%)p 3.07( 75.42%)
                                            0.0000 -0.4958 -0.7772  0.3447 -0.1770
[...]
   20       4.7781       -1.1490       5.9272        -6.3375      11.1156
   21       5.4983       -3.1012       8.5995        -5.5878      11.0861
   38     200.0121       -0.0025     200.0146         0.0028     200.0093
 Sum      214.6929      -21.8322     236.5251       -26.0034     240.6963

 Contributions to Isotropic shielding for atom    8 (   364.6275 ppm):
                         Standard Origin              Atomic Origin
 NLMO      Total    Paramagnetic  Diamagnetic   Paramagnetic  Diamagnetic
   10      26.5668        9.7701      16.7967        16.0606      10.5062
   11      -0.7309       -1.2225       0.4916        -1.9387       1.2079
   20      -0.0673       -0.5798       0.5125        -1.0010       0.9337
   22      24.0080       12.1759      11.8321         9.5672      14.4408
   29      -0.3274       -1.2523       0.9249        -0.9111       0.5838
   39     271.1865       -0.0065     271.1930        -0.0035     271.1900
   43      33.3587        0.4906      32.8681        -4.0842      37.4429
   44       8.8904      -29.3119      38.2023       -30.9913      39.8818
 Sum      362.8850       -9.9363     372.8213       -13.3021     376.1870

 Contributions to Isotropic shielding for atom    9 (   212.2058 ppm):
                         Standard Origin              Atomic Origin
 NLMO      Total    Paramagnetic  Diamagnetic   Paramagnetic  Diamagnetic
   10      -0.0329       -0.1657       0.1329        -1.0346       1.0017
   15      -0.1637       -0.5357       0.3720        -1.0552       0.8915
   16       4.8769      -10.0639      14.9408        -2.9760       7.8529
   23      -0.2824       -6.3636       6.0812        -7.7010       7.4186
   24      -1.9572       -5.0003       3.0430        -9.4898       7.5325
   25       5.0995       -1.3003       6.3998        -5.7792      10.8788
   26       0.8909       -0.2547       1.1456        -0.1334       1.0244
   27       0.6243       -0.5564       1.1807        -0.3993       1.0237
   28       0.5779       -0.2018       0.7797        -0.4629       1.0407
   29       1.0130       -0.2967       1.3097         0.0028       1.0103
   30       0.7072       -0.6147       1.3219        -0.3263       1.0335
   31       0.6172       -0.3621       0.9793        -0.4150       1.0323
   40     199.9265       -0.0020     199.9285         0.0025     199.9240
 Sum      211.8973      -25.7179     237.6152       -29.7675     241.6648

 Contributions to Isotropic shielding for atom   10 (   224.2462 ppm):
                         Standard Origin              Atomic Origin
 NLMO      Total    Paramagnetic  Diamagnetic   Paramagnetic  Diamagnetic
   23       3.7668       -9.3835      13.1502        -4.2975       8.0642
   24      -0.3796       -0.0131      -0.3665        -1.0437       0.6641
   26       6.8518       -4.3497      11.2015        -4.1446      10.9964
   27       6.8838       -5.1547      12.0385        -4.2564      11.1402
   28       5.9280        3.2443       2.6837        -5.2142      11.1422
   41     200.0743       -0.0022     200.0764         0.0015     200.0728
 Sum      223.1250      -15.6588     238.7838       -18.9549     242.0799

 Contributions to Isotropic shielding for atom   11 (   219.9566 ppm):
                         Standard Origin              Atomic Origin
 NLMO      Total    Paramagnetic  Diamagnetic   Paramagnetic  Diamagnetic
   17      -0.2833       -0.1683      -0.1150        -1.2375       0.9541
   23      -0.5132       -0.0035      -0.5097        -1.1792       0.6660
   24       4.1740      -11.4500      15.6240        -3.7770       7.9510
   25       0.2888        0.1984       0.0904        -0.7783       1.0671
   29       6.0496       -4.5701      10.6197        -5.0844      11.1340
   30       5.3928       -4.1449       9.5377        -5.7812      11.1739
   31       4.5127        2.2742       2.2385        -6.5344      11.0471
   42     200.0769       -0.0037     200.0806         0.0022     200.0748
 Sum      219.6983      -17.8679     237.5662       -24.3698     244.0681

 Contributions to Isotropic shielding for atom   12 (    32.7276 ppm):
                         Standard Origin              Atomic Origin
 NLMO      Total    Paramagnetic  Diamagnetic   Paramagnetic  Diamagnetic
    1       1.6255       -1.2944       2.9199         0.7277       0.8978
    2      26.3303        0.3798      25.9504         0.3553      25.9750
    3       1.9991        0.8522       1.1470         0.1594       1.8398
    4       1.9771        1.1476       0.8294         0.1365       1.8406
 Sum       31.9320        1.0852      30.8468         1.3789      30.5531

 Contributions to Isotropic shielding for atom   13 (    32.5839 ppm):
                         Standard Origin              Atomic Origin
 NLMO      Total    Paramagnetic  Diamagnetic   Paramagnetic  Diamagnetic
    1       1.3343        0.3025       1.0318         0.2995       1.0348
    2       2.1050        0.5252       1.5798         0.2545       1.8505
    3      26.3247        0.1215      26.2032         0.4160      25.9087
    4       1.9260        2.4177      -0.4917         0.0856       1.8404
 Sum       31.6900        3.3669      28.3231         1.0556      30.6344

 Contributions to Isotropic shielding for atom   14 (    32.6278 ppm):
                         Standard Origin              Atomic Origin
 NLMO      Total    Paramagnetic  Diamagnetic   Paramagnetic  Diamagnetic
    1       1.2435        0.5666       0.6770         0.2070       1.0366
    2       2.0859        0.7438       1.3421         0.2346       1.8513
    3       1.9515        2.3598      -0.4083         0.1104       1.8411
    4      26.3485        0.0747      26.2738         0.4301      25.9184
 Sum       31.6294        3.7448      27.8846         0.9821      30.6473

 Contributions to Isotropic shielding for atom   15 (    32.3513 ppm):
                         Standard Origin              Atomic Origin
 NLMO      Total    Paramagnetic  Diamagnetic   Paramagnetic  Diamagnetic
    1       0.7819        2.2526      -1.4707        -0.2280       1.0099
    5       1.1710        1.3754      -0.2045         0.1952       0.9758
    6       1.2996        1.0511       0.2485         0.3325       0.9671
    7      26.5160       -0.2854      26.8014         0.5125      26.0035
   19       0.1454        0.0252       0.1202        -0.8922       1.0376
   21       0.1323        0.1926      -0.0603        -0.9127       1.0450
 Sum       30.0462        4.6116      25.4346        -0.9928      31.0390

 Contributions to Isotropic shielding for atom   16 (    32.2218 ppm):
                         Standard Origin              Atomic Origin
 NLMO      Total    Paramagnetic  Diamagnetic   Paramagnetic  Diamagnetic
    2      -0.3309       -1.0222       0.6913        -0.8729       0.5420
    8       1.0754       -0.0791       1.1545         0.1764       0.8990
    9       0.8005        0.3883       0.4122        -0.2791       1.0796
   10       0.6039        0.7503      -0.1464        -0.8265       1.4304
   11      26.7408        0.4175      26.3233         0.6917      26.0491
   22       0.0670       -1.2009       1.2679        -1.0254       1.0925
   26      -0.2402       -1.2367       0.9965        -1.0339       0.7937
 Sum       28.7165       -1.9828      30.6993        -3.1697      31.8862

 Contributions to Isotropic shielding for atom   17 (    32.7675 ppm):
                         Standard Origin              Atomic Origin
 NLMO      Total    Paramagnetic  Diamagnetic   Paramagnetic  Diamagnetic
   12       1.4199       -0.1100       1.5299         0.5167       0.9032
   13       1.0359        0.8423       0.1936         0.0919       0.9440
   14      26.4922        0.1840      26.3082         0.4000      26.0922
   15       1.9727        1.4296       0.5431         0.2218       1.7509
   27      -0.3719       -1.1497       0.7778        -0.7937       0.4219
 Sum       30.5488        1.1962      29.3526         0.4367      30.1121

 Contributions to Isotropic shielding for atom   18 (    32.5806 ppm):
                         Standard Origin              Atomic Origin
 NLMO      Total    Paramagnetic  Diamagnetic   Paramagnetic  Diamagnetic
   12       1.3518        0.4954       0.8564         0.4034       0.9484
   13       0.9873        1.4685      -0.4812        -0.0574       1.0447
   14       2.0945        1.2471       0.8475         0.3329       1.7616
   15      26.4630        0.0417      26.4212         0.4728      25.9901
   19       0.2033       -0.4105       0.6137        -0.8124       1.0157
   25      -0.1910       -1.0670       0.8760        -0.8904       0.6994
 Sum       30.9088        1.7752      29.1337        -0.5510      31.4599

 Contributions to Isotropic shielding for atom   19 (    32.4230 ppm):
                         Standard Origin              Atomic Origin
 NLMO      Total    Paramagnetic  Diamagnetic   Paramagnetic  Diamagnetic
    8       1.2893        0.6685       0.6208         0.3357       0.9536
   10       0.0671       -0.3676       0.4347        -1.2767       1.3438
   12       1.1428        0.9057       0.2372         0.1939       0.9489
   16       1.0542        1.3058      -0.2515        -0.0400       1.0942
   17      26.3785        0.0591      26.3194         0.4550      25.9235
   24      -0.0540       -0.6675       0.6136        -1.0921       1.0382
   30      -0.1574       -1.5944       1.4369        -1.0516       0.8941
 Sum       29.7206        0.3095      29.4111        -2.4758      32.1964

 Contributions to Isotropic shielding for atom   20 (    32.5197 ppm):
                         Standard Origin              Atomic Origin
 NLMO      Total    Paramagnetic  Diamagnetic   Paramagnetic  Diamagnetic
    1      -0.0983       -0.0027      -0.0956        -1.0694       0.9711
    4      -0.0974       -1.0336       0.9363        -0.9928       0.8955
    5       1.0304        1.2776      -0.2472         0.1270       0.9034
   13       1.2264        0.6684       0.5580         0.2202       1.0061
   18      26.4740        0.0000      26.4741         0.5002      25.9738
   19       2.0246        1.8396       0.1850         0.2858       1.7388
 Sum       30.5598        2.7492      27.8106        -0.9290      31.4887

 Contributions to Isotropic shielding for atom   21 (    32.4447 ppm):
                         Standard Origin              Atomic Origin
 NLMO      Total    Paramagnetic  Diamagnetic   Paramagnetic  Diamagnetic
    5       1.2215        0.6737       0.5478         0.2423       0.9792
   13       1.3860        0.0370       1.3490         0.4117       0.9743
   18       1.9153        2.0472      -0.1319         0.1397       1.7756
   19      26.4745        0.1236      26.3509         0.4383      26.0362
 Sum       30.9973        2.8815      28.1158         1.2320      29.7653

 Contributions to Isotropic shielding for atom   22 (    32.0408 ppm):
                         Standard Origin              Atomic Origin
 NLMO      Total    Paramagnetic  Diamagnetic   Paramagnetic  Diamagnetic
    1      -0.0472       -0.2615       0.2143        -1.0095       0.9623
    3      -0.1066       -1.1331       1.0265        -0.9985       0.8919
    6       0.9934        1.3103      -0.3169         0.0712       0.9222
    9       1.2566        0.4565       0.8001         0.3207       0.9360
   10      -0.0021        0.1439      -0.1460        -1.5046       1.5025
   20      26.2838        0.0572      26.2266         0.4690      25.8149
   21       2.0196        1.6140       0.4056         0.1748       1.8449
 Sum       30.3976        2.1874      28.2102        -2.4771      32.8746

 Contributions to Isotropic shielding for atom   23 (    32.1117 ppm):
                         Standard Origin              Atomic Origin
 NLMO      Total    Paramagnetic  Diamagnetic   Paramagnetic  Diamagnetic
    6       1.0913        0.8986       0.1927         0.1029       0.9883
    9       1.3962        0.1563       1.2399         0.5211       0.8750
   10       0.0516       -0.0909       0.1425        -1.5722       1.6239
   20       1.9583        1.7076       0.2507         0.0973       1.8609
   21      26.2507        0.1322      26.1185         0.4278      25.8229
 Sum       30.7480        2.8037      27.9443        -0.4231      31.1711

 Contributions to Isotropic shielding for atom   24 (    34.7300 ppm):
                         Standard Origin              Atomic Origin
 NLMO      Total    Paramagnetic  Diamagnetic   Paramagnetic  Diamagnetic
   10       1.5987        1.4831       0.1156         0.8436       0.7551
   11      -0.0846        0.0778      -0.1624        -1.2337       1.1491
   22      22.9486       -0.5100      23.4587        -0.2107      23.1594
   29      -0.4545       -1.5734       1.1189        -0.6476       0.1932
   43       3.9136        1.2971       2.6165         1.9845       1.9291
   44       5.5167        2.5099       3.0069         2.2604       3.2563
 Sum       33.4386        3.2845      30.1542         2.9965      30.4422

 Contributions to Isotropic shielding for atom   25 (    32.5195 ppm):
                         Standard Origin              Atomic Origin
 NLMO      Total    Paramagnetic  Diamagnetic   Paramagnetic  Diamagnetic
   12      -0.1807        0.2588      -0.4395        -1.3063       1.1256
   15      -0.1274       -0.5823       0.4549        -1.0229       0.8955
   16       1.6952        0.1035       1.5917         0.6473       1.0479
   23       0.9828        1.5208      -0.5379        -0.0465       1.0293
   24       0.8383        2.0572      -1.2189        -0.2438       1.0821
   25      26.4941       -0.1593      26.6534         0.4621      26.0320
   28       0.2128       -0.3188       0.5316        -0.7893       1.0021
   31       0.1963       -0.6772       0.8735        -0.8326       1.0290
 Sum       30.1114        2.2028      27.9087        -3.1321      33.2436

 Contributions to Isotropic shielding for atom   26 (    33.2343 ppm):
                         Standard Origin              Atomic Origin
 NLMO      Total    Paramagnetic  Diamagnetic   Paramagnetic  Diamagnetic
    8      -0.1197        0.0039      -0.1236        -1.0615       0.9418
   10      -0.1042        0.1013      -0.2055        -1.1501       1.0459
   23       1.4790       -0.4998       1.9788         0.5398       0.9392
   26      26.4918        0.2632      26.2286         0.3723      26.1195
   27       2.1411        0.3645       1.7766         0.3191       1.8220
   28       2.0059        2.0110      -0.0051         0.1506       1.8553
 Sum       31.8940        2.2441      29.6499        -0.8299      32.7239

 Contributions to Isotropic shielding for atom   27 (    32.6463 ppm):
                         Standard Origin              Atomic Origin
 NLMO      Total    Paramagnetic  Diamagnetic   Paramagnetic  Diamagnetic
   23       1.4886       -0.6760       2.1645         0.4600       1.0286
   26       2.1026        0.3751       1.7275         0.2892       1.8134
   27      26.2749        0.2956      25.9793         0.3728      25.9021
   28       1.9565        1.8605       0.0959         0.0977       1.8588
 Sum       31.8225        1.8552      29.9673         1.2197      30.6028

 Contributions to Isotropic shielding for atom   28 (    32.5788 ppm):
                         Standard Origin              Atomic Origin
 NLMO      Total    Paramagnetic  Diamagnetic   Paramagnetic  Diamagnetic
   23       1.1543        0.9075       0.2468         0.1128       1.0416
   24      -0.1236        0.5258      -0.6493        -1.0667       0.9431
   26       1.9846        1.5957       0.3888         0.1372       1.8474
   27       2.0506        1.5001       0.5504         0.1870       1.8636
   28      26.2508       -0.0242      26.2750         0.4057      25.8451
 Sum       31.3167        4.5049      26.8118        -0.2242      31.5409

 Contributions to Isotropic shielding for atom   29 (    32.7349 ppm):
                         Standard Origin              Atomic Origin
 NLMO      Total    Paramagnetic  Diamagnetic   Paramagnetic  Diamagnetic
   22      -0.2750       -0.3678       0.0928        -1.1264       0.8514
   23      -0.1528        0.2662      -0.4190        -1.0492       0.8964
   24       1.5594       -0.9689       2.5284         0.6675       0.8919
   29      26.3848        0.2755      26.1094         0.4127      25.9721
   30       2.0146        0.7954       1.2192         0.1867       1.8279
   31       1.9078        2.0650      -0.1572         0.0446       1.8632
 Sum       31.4389        2.0654      29.3735        -0.8640      32.3029

 Contributions to Isotropic shielding for atom   30 (    32.2944 ppm):
                         Standard Origin              Atomic Origin
 NLMO      Total    Paramagnetic  Diamagnetic   Paramagnetic  Diamagnetic
   16      -0.0638        0.0986      -0.1624        -1.0403       0.9765
   24       1.5708       -0.7553       2.3261         0.5740       0.9968
   29       2.0224        0.7641       1.2583         0.1888       1.8336
   30      26.2600        0.2734      25.9867         0.4297      25.8303
   31       1.8711        2.2018      -0.3308         0.0383       1.8327
 Sum       31.6605        2.5825      29.0780         0.1905      31.4700

 Contributions to Isotropic shielding for atom   31 (    32.4560 ppm):
                         Standard Origin              Atomic Origin
 NLMO      Total    Paramagnetic  Diamagnetic   Paramagnetic  Diamagnetic
   23      -0.1515        0.6905      -0.8420        -1.0545       0.9030
   24       1.2234        0.3688       0.8546         0.1943       1.0291
   25       0.1285        0.5810      -0.4525        -0.8718       1.0004
   29       1.9308        1.7006       0.2302         0.0606       1.8701
   30       1.9372        1.9030       0.0342         0.0748       1.8624
   31      26.4348        0.0212      26.4136         0.4641      25.9707
 Sum       31.5032        5.2651      26.2381        -1.1324      32.6356
 
 1\1\GINC-COMPUTE-10-7\SP\RHF\STO-3G\C10H20O1\YTSAI.IQUIR\24-May-2020\0
 \\# rhf/STO-3G nmr pop=nbo\\comment\\0,1\C,0,0.060300844,0.882541801,-
 2.938873828\C,0,-1.06107929,0.133323191,-2.214602084\C,0,0.32178794,-0
 .970224069,-0.360647967\C,0,-0.860643717,1.217373163,0.088239817\C,0,-
 0.39380129,-0.116706856,0.709916204\C,0,-1.732873165,1.00540845,-1.148
 670435\C,0,-0.562836753,-1.175889061,-1.59562055\O,0,0.634830754,-2.26
 5225322,0.140598576\C,0,0.415194809,0.157537792,2.014866645\C,0,1.8506
 50629,0.62964476,1.77240499\C,0,0.41247283,-1.034805707,2.977848129\H,
 0,0.867959418,1.181492941,-2.264598844\H,0,0.495690153,0.2558266,-3.72
 4549865\H,0,-0.329031601,1.788522629,-3.415593261\H,0,-1.816442389,-0.
 11669119,-2.971042154\H,0,1.258893547,-0.49703613,-0.674228452\H,0,0.0
 02074921,1.838746969,-0.176311281\H,0,-1.439266737,1.786349844,0.82636
 8315\H,0,-1.299245993,-0.661661885,1.01523528\H,0,-2.010000173,1.97762
 1264,-1.573306402\H,0,-2.669725032,0.524787415,-0.838013639\H,0,-0.020
 300999,-1.770182404,-2.342165538\H,0,-1.4279664,-1.792423917,-1.314377
 79\H,0,1.499179533,-2.206687299,0.580750002\H,0,-0.101075133,0.9672444
 63,2.549407206\H,0,2.469718107,-0.158825214,1.333361738\H,0,1.88058772
 ,1.498898457,1.109154011\H,0,2.319513631,0.923827096,2.718067259\H,0,1
 .028056375,-1.8639594,2.622018792\H,0,-0.604653122,-1.405415799,3.1414
 93801\H,0,0.812030583,-0.733412582,3.952871327\\Version=EM64L-G09RevC.
 01\State=1-A\HF=-459.6170434\RMSD=9.503e-09\Dipole=0.2441417,0.4809266
 ,0.0525053\Quadrupole=2.1439774,-2.9180563,0.7740789,-0.8397662,0.6242
 ,0.040315\PG=C01 [X(C10H20O1)]\\@


 "MATHEMATICS IS THE ART OF GIVING THE SAME NAME
 TO DIFFERENT THINGS."
                    - H. POINCARE
 Job cpu time:  0 days  0 hours  0 minutes 39.6 seconds.
 File lengths (MBytes):  RWF=      5 Int=      0 D2E=      0 Chk=      1 Scr=      1
 Normal termination of Gaussian 09 at Sun May 24 02:09:18 2020.
