 Entering Gaussian System, Link 0=g09
 Input=/home/ytsai.iquir/menthol/04_menthol_M0046_MMFF_NMR_rhf_STO-3G_nbo.gjc
 Output=/home/ytsai.iquir/menthol/04_menthol_M0046_MMFF_NMR_rhf_STO-3G_nbo.log
 Initial command:
 /share/apps/Gaussian09/EM64T.SSE4.2-enabled/g09/l1.exe /tmp/Gau-11284.inp -scrdir=/tmp/
 Entering Link 1 = /share/apps/Gaussian09/EM64T.SSE4.2-enabled/g09/l1.exe PID=     11285.
  
 Copyright (c) 1988,1990,1992,1993,1995,1998,2003,2009,2011,
            Gaussian, Inc.  All Rights Reserved.
  
 This is part of the Gaussian(R) 09 program.  It is based on
 the Gaussian(R) 03 system (copyright 2003, Gaussian, Inc.),
 the Gaussian(R) 98 system (copyright 1998, Gaussian, Inc.),
 the Gaussian(R) 94 system (copyright 1995, Gaussian, Inc.),
 the Gaussian 92(TM) system (copyright 1992, Gaussian, Inc.),
 the Gaussian 90(TM) system (copyright 1990, Gaussian, Inc.),
 the Gaussian 88(TM) system (copyright 1988, Gaussian, Inc.),
 the Gaussian 86(TM) system (copyright 1986, Carnegie Mellon
 University), and the Gaussian 82(TM) system (copyright 1983,
 Carnegie Mellon University). Gaussian is a federally registered
 trademark of Gaussian, Inc.
  
 This software contains proprietary and confidential information,
 including trade secrets, belonging to Gaussian, Inc.
  
 This software is provided under written license and may be
 used, copied, transmitted, or stored only in accord with that
 written license.
  
 The following legend is applicable only to US Government
 contracts under FAR:
  
                    RESTRICTED RIGHTS LEGEND
  
 Use, reproduction and disclosure by the US Government is
 subject to restrictions as set forth in subparagraphs (a)
 and (c) of the Commercial Computer Software - Restricted
 Rights clause in FAR 52.227-19.
  
 Gaussian, Inc.
 340 Quinnipiac St., Bldg. 40, Wallingford CT 06492
  
  
 ---------------------------------------------------------------
 Warning -- This program may not be used in any manner that
 competes with the business of Gaussian, Inc. or will provide
 assistance to any competitor of Gaussian, Inc.  The licensee
 of this program is prohibited from giving any competitor of
 Gaussian, Inc. access to this program.  By using this program,
 the user acknowledges that Gaussian, Inc. is engaged in the
 business of creating and licensing software in the field of
 computational chemistry and represents and warrants to the
 licensee that it is not a competitor of Gaussian, Inc. and that
 it will not use this program in any manner prohibited above.
 ---------------------------------------------------------------
  

 Cite this work as:
 Gaussian 09, Revision C.01,
 M. J. Frisch, G. W. Trucks, H. B. Schlegel, G. E. Scuseria, 
 M. A. Robb, J. R. Cheeseman, G. Scalmani, V. Barone, B. Mennucci, 
 G. A. Petersson, H. Nakatsuji, M. Caricato, X. Li, H. P. Hratchian, 
 A. F. Izmaylov, J. Bloino, G. Zheng, J. L. Sonnenberg, M. Hada, 
 M. Ehara, K. Toyota, R. Fukuda, J. Hasegawa, M. Ishida, T. Nakajima, 
 Y. Honda, O. Kitao, H. Nakai, T. Vreven, J. A. Montgomery, Jr., 
 J. E. Peralta, F. Ogliaro, M. Bearpark, J. J. Heyd, E. Brothers, 
 K. N. Kudin, V. N. Staroverov, T. Keith, R. Kobayashi, J. Normand, 
 K. Raghavachari, A. Rendell, J. C. Burant, S. S. Iyengar, J. Tomasi, 
 M. Cossi, N. Rega, J. M. Millam, M. Klene, J. E. Knox, J. B. Cross, 
 V. Bakken, C. Adamo, J. Jaramillo, R. Gomperts, R. E. Stratmann, 
 O. Yazyev, A. J. Austin, R. Cammi, C. Pomelli, J. W. Ochterski, 
 R. L. Martin, K. Morokuma, V. G. Zakrzewski, G. A. Voth, 
 P. Salvador, J. J. Dannenberg, S. Dapprich, A. D. Daniels, 
 O. Farkas, J. B. Foresman, J. V. Ortiz, J. Cioslowski, 
 and D. J. Fox, Gaussian, Inc., Wallingford CT, 2010.
 
 ******************************************
 Gaussian 09:  EM64L-G09RevC.01 23-Sep-2011
                 3-Aug-2021 
 ******************************************
 %nprocshared=4
 Will use up to    4 processors via shared memory.
 ------------------------
 # rhf/STO-3G nmr pop=nbo
 ------------------------
 1/38=1/1;
 2/12=2,17=6,18=5,40=1/2;
 3/6=3,11=1,16=1,25=1,30=1,116=1/1,2,8,3;
 4//1;
 5/5=2,38=5/2;
 8/6=1,10=90,11=11/1;
 10/13=100,45=16/2;
 6/7=2,8=2,9=2,10=2,28=1,64=1/1,7;
 99/9=1/99;
 -------
 comment
 -------
 Charge =  0 Multiplicity = 1
 Symbolic Z-Matrix:
 6                     1.02174   1.69064  -2.54953 
 6                     0.01818   0.62362  -2.1013 
 6                     1.23615  -0.26791  -0.03225 
 6                    -0.54088   1.51907   0.2259 
 6                     0.18472   0.34525   0.91983 
 6                    -1.05496   1.21074  -1.17781 
 6                     0.71965  -0.56773  -1.44154 
 8                     1.81593  -1.45028   0.50256 
 6                    -0.80632  -0.61758   1.65456 
 6                    -0.17296  -1.2317    2.91359 
 6                    -1.41771  -1.73883   0.81667 
 1                     1.75005   1.26423  -3.24767 
 1                     0.50809   2.50837  -3.0664 
 1                     1.57589   2.12182  -1.71087 
 1                    -0.48103   0.26023  -3.00916 
 1                     2.05777   0.45302  -0.13151 
 1                     0.15952   2.362     0.15951 
 1                    -1.36997   1.8794    0.84647 
 1                     0.76161   0.81443   1.73142 
 1                    -1.46519   2.12737  -1.61954 
 1                    -1.89604   0.51339  -1.1127 
 1                     1.55607  -0.90717  -2.06693 
 1                     0.03593  -1.42274  -1.41935 
 1                     2.27223  -1.20295   1.32484 
 1                    -1.64203  -0.0055    2.02045 
 1                     0.61419  -1.95089   2.67291 
 1                     0.25364  -0.45676   3.55889 
 1                    -0.93079  -1.7625    3.50104 
 1                    -0.66652  -2.46733   0.49804 
 1                    -1.93395  -1.35691  -0.06516 
 1                    -2.16303  -2.28682   1.40504 
 
                          Input orientation:                          
 ---------------------------------------------------------------------
 Center     Atomic      Atomic             Coordinates (Angstroms)
 Number     Number       Type             X           Y           Z
 ---------------------------------------------------------------------
      1          6           0        1.021736    1.690639   -2.549525
      2          6           0        0.018179    0.623621   -2.101298
      3          6           0        1.236147   -0.267909   -0.032247
      4          6           0       -0.540882    1.519067    0.225901
      5          6           0        0.184723    0.345251    0.919825
      6          6           0       -1.054963    1.210739   -1.177812
      7          6           0        0.719655   -0.567730   -1.441539
      8          8           0        1.815932   -1.450284    0.502559
      9          6           0       -0.806316   -0.617579    1.654562
     10          6           0       -0.172957   -1.231697    2.913592
     11          6           0       -1.417711   -1.738825    0.816672
     12          1           0        1.750053    1.264233   -3.247674
     13          1           0        0.508085    2.508369   -3.066405
     14          1           0        1.575894    2.121817   -1.710866
     15          1           0       -0.481030    0.260233   -3.009155
     16          1           0        2.057775    0.453023   -0.131512
     17          1           0        0.159525    2.362000    0.159507
     18          1           0       -1.369969    1.879404    0.846470
     19          1           0        0.761608    0.814428    1.731417
     20          1           0       -1.465194    2.127372   -1.619542
     21          1           0       -1.896035    0.513389   -1.112698
     22          1           0        1.556073   -0.907172   -2.066929
     23          1           0        0.035930   -1.422737   -1.419349
     24          1           0        2.272227   -1.202948    1.324844
     25          1           0       -1.642028   -0.005495    2.020447
     26          1           0        0.614191   -1.950893    2.672907
     27          1           0        0.253639   -0.456764    3.558885
     28          1           0       -0.930789   -1.762498    3.501042
     29          1           0       -0.666524   -2.467326    0.498035
     30          1           0       -1.933946   -1.356910   -0.065157
     31          1           0       -2.163027   -2.286819    1.405043
 ---------------------------------------------------------------------
                    Distance matrix (angstroms):
                    1          2          3          4          5
     1  C    0.000000
     2  C    1.531850   0.000000
     3  C    3.196650   2.561102   0.000000
     4  C    3.189703   2.555431   2.533329   0.000000
     5  C    3.814059   3.038488   1.545282   1.544628   0.000000
     6  C    2.534676   1.532699   2.957685   1.526353   2.585724
     7  C    2.533598   1.531883   1.530608   2.953647   2.587610
     8  O    4.450996   3.783262   1.421331   3.801074   2.461484
     9  C    5.132640   4.040650   2.671937   2.583947   1.564941
    10  C    6.309754   5.350501   3.404766   3.863387   2.567063
    11  C    5.389194   4.019636   3.150749   3.425157   2.630934
    12  H    1.095298   2.173465   3.598684   4.168818   4.545638
    13  H    1.095302   2.173412   4.176591   3.594208   4.546831
    14  H    1.093780   2.196248   2.940065   2.931743   3.465844
    15  H    2.125001   1.097937   3.477013   3.471863   3.985893
    16  H    2.907207   2.840618   1.097574   2.831468   2.150638
    17  H    2.921128   2.855377   2.848211   1.097959   2.155457
    18  H    4.157964   3.491888   3.489260   1.096510   2.185423
    19  H    4.377428   3.908810   2.123005   2.111770   1.100728
    20  H    2.690804   2.166507   3.943870   2.151754   3.513768
    21  H    3.458870   2.157243   3.404169   2.153991   2.913585
    22  H    2.695744   2.170167   2.156604   3.942198   3.517082
    23  H    3.455752   2.157069   2.167533   3.419615   2.935925
    24  H    4.994728   4.489492   1.946653   4.065787   2.630329
    25  H    5.554922   4.487857   3.544898   2.599463   2.161345
    26  H    6.379706   5.456774   3.246093   4.400301   2.920619
    27  H    6.520276   5.767178   3.727897   3.955244   2.759097
    28  H    7.235044   6.162816   4.406079   4.652659   3.514207
    29  H    5.424621   4.096254   2.956144   3.997645   2.968690
    30  H    4.918912   3.446616   3.352088   3.208829   2.890727
    31  H    6.449922   5.052004   4.206683   4.301918   3.560219
                    6          7          8          9         10
     6  C    0.000000
     7  C    2.526217   0.000000
     8  O    4.259898   2.400051   0.000000
     9  C    3.380372   3.452088   2.982733   0.000000
    10  C    4.845928   4.494972   3.133136   1.537349   0.000000
    11  C    3.579033   3.322546   3.261652   1.527435   2.490716
    12  H    3.486445   2.771269   4.630031   5.840219   6.920176
    13  H    2.773760   3.485304   5.488069   5.812636   7.086063
    14  H    2.834717   2.835375   4.209130   4.950285   5.974124
    15  H    2.141653   2.141166   4.531451   4.756746   6.115530
    16  H    3.370165   2.132762   2.020672   3.541082   4.133656
    17  H    2.142149   3.385323   4.170718   3.470725   4.539845
    18  H    2.155008   3.948415   4.621155   2.684333   3.922345
    19  H    3.452622   3.461180   2.783993   2.124838   2.541177
    20  H    1.097101   3.474021   5.297992   4.323035   5.788137
    21  H    1.094505   2.849349   4.499308   3.181872   4.714376
    22  H    3.477583   1.098148   2.639084   4.417493   5.282088
    23  H    2.860696   1.094993   2.619713   3.287337   4.342178
    24  H    4.812417   3.235252   0.972385   3.150999   2.916139
    25  H    3.471704   4.228357   4.043377   1.098606   2.111742
    26  H    5.254524   4.341996   2.530850   2.198315   1.093057
    27  H    5.189345   5.023318   3.573370   2.185363   1.094947
    28  H    5.545018   5.346077   4.078339   2.176193   1.095972
    29  H    4.060481   3.048262   2.682719   2.186014   2.757771
    30  H    2.933161   3.091736   3.793759   2.185313   3.462616
    31  H    4.486853   4.400926   4.164899   2.165476   2.710974
                   11         12         13         14         15
    11  C    0.000000
    12  H    5.964226   0.000000
    13  H    6.068413   1.767263   0.000000
    14  H    5.500425   1.768491   1.768367   0.000000
    15  H    4.417076   2.458178   2.456775   3.063003   0.000000
    16  H    4.216901   3.234690   3.903790   2.347646   3.842334
    17  H    4.442556   3.917110   3.247987   2.358407   3.855924
    18  H    3.618667   5.184108   4.385575   3.908560   4.275251
    19  H    3.479266   5.096145   5.094389   3.771159   4.931968
    20  H    4.569997   3.705891   2.476368   3.042464   2.527016
    21  H    3.003953   4.291369   3.684659   3.872872   2.379680
    22  H    4.224949   2.479271   3.709873   3.049910   2.529905
    23  H    2.685660   3.674343   4.288277   3.875608   2.372155
    24  H    3.763116   5.221836   6.014079   4.555709   5.338996
    25  H    2.122222   6.393084   6.067830   5.366859   5.168697
    26  H    2.760291   6.832312   7.268836   6.060471   6.194709
    27  H    3.457864   7.178463   7.263004   6.013961   6.647780
    28  H    2.728277   7.867221   7.965049   6.966731   6.832012
    29  H    1.093858   5.813321   6.232373   5.564882   4.446838
    30  H    1.090862   5.529073   5.469131   5.208539   3.659678
    31  H    1.096345   7.040592   7.079725   6.566924   5.366725
                   16         17         18         19         20
    16  H    0.000000
    17  H    2.707810   0.000000
    18  H    3.839328   1.744754   0.000000
    19  H    2.298079   2.286566   2.541835   0.000000
    20  H    4.174803   2.420697   2.480276   4.232185   0.000000
    21  H    4.074185   3.043221   2.445625   3.904188   1.745697
    22  H    2.418196   4.194621   4.981428   4.245293   4.305423
    23  H    3.043823   4.102718   4.244363   3.931773   3.859627
    24  H    2.215673   4.304692   4.795344   2.552857   5.807646
    25  H    4.304615   3.509092   2.237205   2.556028   4.222548
    26  H    3.965793   5.012479   4.684436   2.924916   6.275444
    27  H    4.207333   4.417020   3.930774   2.283332   6.037239
    28  H    5.199566   5.419052   4.528033   3.554761   6.452677
    29  H    4.043089   4.911145   4.417047   3.785591   5.121840
    30  H    4.383388   4.273568   3.409232   3.899794   3.843964
    31  H    5.261454   5.343887   4.277658   4.275247   5.396310
                   21         22         23         24         25
    21  H    0.000000
    22  H    3.852999   0.000000
    23  H    2.752291   1.730897   0.000000
    24  H    5.124630   3.479150   3.546820   0.000000
    25  H    3.185963   5.267591   4.081215   4.152005   0.000000
    26  H    5.167662   4.943940   4.166521   2.264018   3.049722
    27  H    5.233163   5.792149   5.075758   3.102003   2.482739
    28  H    5.234306   6.157788   5.025955   3.912574   2.405219
    29  H    3.604278   3.735379   2.293680   3.304318   3.054498
    30  H    2.144014   4.048406   2.391355   4.432572   2.502255
    31  H    3.775112   5.271595   3.682287   4.566474   2.419628
                   26         27         28         29         30
    26  H    0.000000
    27  H    1.774084   0.000000
    28  H    1.763026   1.763846   0.000000
    29  H    2.576238   3.775958   3.095911   0.000000
    30  H    3.787191   4.327756   3.726741   1.776674   0.000000
    31  H    3.071362   3.718657   2.487275   1.759195   1.754621
                   31
    31  H    0.000000
 Stoichiometry    C10H20O
 Framework group  C1[X(C10H20O)]
 Deg. of freedom    87
 Full point group                 C1      NOp   1
 Largest Abelian subgroup         C1      NOp   1
 Largest concise Abelian subgroup C1      NOp   1
                         Standard orientation:                         
 ---------------------------------------------------------------------
 Center     Atomic      Atomic             Coordinates (Angstroms)
 Number     Number       Type             X           Y           Z
 ---------------------------------------------------------------------
      1          6           0        3.185261    0.321727   -0.387506
      2          6           0        2.115970   -0.114153    0.619067
      3          6           0        0.083618    1.094930   -0.364247
      4          6           0        0.516697   -1.328647   -0.961300
      5          6           0       -0.564386   -0.236275   -0.806833
      6          6           0        1.475800   -1.448365    0.220031
      7          6           0        1.051436    0.969855    0.814925
      8          8           0       -0.888015    2.084888   -0.054256
      9          6           0       -1.821843   -0.747776   -0.028240
     10          6           0       -3.110659   -0.072648   -0.524825
     11          6           0       -1.770828   -0.646218    1.494961
     12          1           0        3.666067    1.249722   -0.059896
     13          1           0        3.965590   -0.441989   -0.474160
     14          1           0        2.773864    0.493348   -1.386332
     15          1           0        2.628566   -0.260414    1.578920
     16          1           0        0.654234    1.488037   -1.215442
     17          1           0        1.103962   -1.102924   -1.861125
     18          1           0        0.053427   -2.303502   -1.154616
     19          1           0       -0.930172   -0.059036   -1.829765
     20          1           0        2.257761   -2.177968   -0.024607
     21          1           0        0.943341   -1.865007    1.080750
     22          1           0        1.530501    1.941961    0.992222
     23          1           0        0.497942    0.770184    1.738389
     24          1           0       -1.393351    2.259299   -0.866506
     25          1           0       -1.941828   -1.812804   -0.269596
     26          1           0       -3.158476    0.983639   -0.247797
     27          1           0       -3.201485   -0.148031   -1.613391
     28          1           0       -3.989307   -0.563413   -0.090910
     29          1           0       -1.762479    0.393283    1.835391
     30          1           0       -0.903234   -1.159941    1.911315
     31          1           0       -2.657196   -1.118116    1.935003
 ---------------------------------------------------------------------
 Rotational constants (GHZ):      1.7366070      0.7942399      0.6939967
 Standard basis: STO-3G (5D, 7F)
 There are    75 symmetry adapted basis functions of A   symmetry.
 Integral buffers will be    131072 words long.
 Raffenetti 1 integral format.
 Two-electron integral symmetry is turned on.
    75 basis functions,   225 primitive gaussians,    75 cartesian basis functions
    44 alpha electrons       44 beta electrons
       nuclear repulsion energy       705.6950678916 Hartrees.
 NAtoms=   31 NActive=   31 NUniq=   31 SFac= 1.00D+00 NAtFMM=   60 NAOKFM=F Big=F
 One-electron integrals computed using PRISM.
 NBasis=    75 RedAO= T  NBF=    75
 NBsUse=    75 1.00D-06 NBFU=    75
 Harris functional with IExCor=  205 diagonalized for initial guess.
 ExpMin= 1.69D-01 ExpMax= 1.31D+02 ExpMxC= 1.31D+02 IAcc=1 IRadAn=         1 AccDes= 0.00D+00
 HarFok:  IExCor=  205 AccDes= 0.00D+00 IRadAn=         1 IDoV= 1
 ScaDFX=  1.000000  1.000000  1.000000  1.000000
 FoFCou: FMM=F IPFlag=           0 FMFlag=      100000 FMFlg1=           0
         NFxFlg=           0 DoJE=T BraDBF=F KetDBF=T FulRan=T
         Omega=  0.000000  0.000000  1.000000  0.000000  0.000000 ICntrl=     500 IOpCl=  0
         NMat0=    1 NMatS0=    1 NMatT0=    0 NMatD0=    1 NMtDS0=    0 NMtDT0=    0
         I1Cent=           4 NGrid=           0.
 Petite list used in FoFCou.
 Initial guess orbital symmetries:
       Occupied  (A) (A) (A) (A) (A) (A) (A) (A) (A) (A) (A) (A)
                 (A) (A) (A) (A) (A) (A) (A) (A) (A) (A) (A) (A)
                 (A) (A) (A) (A) (A) (A) (A) (A) (A) (A) (A) (A)
                 (A) (A) (A) (A) (A) (A) (A) (A)
       Virtual   (A) (A) (A) (A) (A) (A) (A) (A) (A) (A) (A) (A)
                 (A) (A) (A) (A) (A) (A) (A) (A) (A) (A) (A) (A)
                 (A) (A) (A) (A) (A) (A) (A)
 The electronic state of the initial guess is 1-A.
 Requested convergence on RMS density matrix=1.00D-08 within 128 cycles.
 Requested convergence on MAX density matrix=1.00D-06.
 Requested convergence on             energy=1.00D-06.
 No special actions if energy rises.
 Keep R1 ints in memory in canonical form, NReq=4898789.
 SCF Done:  E(RHF) =  -459.609063805     A.U. after   10 cycles
             Convg  =    0.9309D-08             -V/T =  2.0089
 Range of M.O.s used for correlation:     1    75
 NBasis=    75 NAE=    44 NBE=    44 NFC=     0 NFV=     0
 NROrb=     75 NOA=    44 NOB=    44 NVA=    31 NVB=    31
          Differentiating once with respect to magnetic field using GIAOs.
          Electric field/nuclear overlap derivatives assumed to be zero.
          Keep R3 ints in memory in canonical form, NReq=4863575.
 FoFCou: FMM=F IPFlag=           0 FMFlag=           0 FMFlg1=           0
         NFxFlg=           0 DoJE=F BraDBF=F KetDBF=T FulRan=T
         Omega=  0.000000  0.000000  1.000000  0.000000  0.000000 ICntrl=    6100 IOpCl=  0
         NMat0=    1 NMatS0=    1 NMatT0=    0 NMatD0=    1 NMtDS0=    0 NMtDT0=    0
         I1Cent=           7 NGrid=          31.
 Symmetry not used in FoFCou.
          There are     3 degrees of freedom in the 1st order CPHF.  IDoFFX=0.
      3 vectors produced by pass  0 Test12= 4.55D-14 3.33D-08 XBig12= 6.21D+00 4.02D-01.
 AX will form     3 AO Fock derivatives at one time.
      3 vectors produced by pass  1 Test12= 4.55D-14 3.33D-08 XBig12= 9.75D-03 2.15D-02.
      3 vectors produced by pass  2 Test12= 4.55D-14 3.33D-08 XBig12= 7.09D-05 2.39D-03.
      3 vectors produced by pass  3 Test12= 4.55D-14 3.33D-08 XBig12= 1.68D-06 3.58D-04.
      3 vectors produced by pass  4 Test12= 4.55D-14 3.33D-08 XBig12= 1.85D-08 2.78D-05.
      3 vectors produced by pass  5 Test12= 4.55D-14 3.33D-08 XBig12= 3.05D-10 2.54D-06.
      3 vectors produced by pass  6 Test12= 4.55D-14 3.33D-08 XBig12= 2.81D-12 2.15D-07.
 Inverted reduced A of dimension    21 with in-core refinement.
 Calculating GIAO nuclear magnetic shielding tensors.
 SCF GIAO Magnetic shielding tensor (ppm):
      1  C    Isotropic =   222.5863   Anisotropy =    25.6665
   XX=   229.7987   YX=     4.2468   ZX=   -11.3702
   XY=     5.2657   YY=   221.0726   ZY=    -1.2971
   XZ=   -15.8612   YZ=    -1.9503   ZZ=   216.8877
   Eigenvalues:   208.1616   219.9000   239.6974
      2  C    Isotropic =   216.4135   Anisotropy =     5.8287
   XX=   219.8093   YX=     0.6028   ZX=    -2.4303
   XY=     0.4058   YY=   217.7021   ZY=     1.4120
   XZ=    -1.6116   YZ=     1.3485   ZZ=   211.7291
   Eigenvalues:   210.9370   218.0042   220.2993
      3  C    Isotropic =   189.3460   Anisotropy =    41.9279
   XX=   200.1108   YX=   -18.6564   ZX=    -0.6158
   XY=   -17.0544   YY=   195.8676   ZY=     7.3782
   XZ=    -3.9234   YZ=    10.6617   ZZ=   172.0597
   Eigenvalues:   168.4449   182.2953   217.2980
      4  C    Isotropic =   216.0224   Anisotropy =    21.2003
   XX=   223.8324   YX=    -8.2312   ZX=    -0.9033
   XY=    -8.2712   YY=   219.0230   ZY=     4.9382
   XZ=     2.9477   YZ=     3.7557   ZZ=   205.2119
   Eigenvalues:   203.3307   214.5806   230.1559
      5  C    Isotropic =   211.0105   Anisotropy =    15.4153
   XX=   217.8751   YX=     3.3028   ZX=    -7.3128
   XY=     2.7352   YY=   206.5191   ZY=    -1.8953
   XZ=    -3.9096   YZ=    -1.0451   ZZ=   208.6371
   Eigenvalues:   205.7491   205.9950   221.2873
      6  C    Isotropic =   218.9792   Anisotropy =    11.3806
   XX=   221.2204   YX=     3.1221   ZX=     2.3774
   XY=     3.9160   YY=   222.6417   ZY=     0.0741
   XZ=     3.7206   YZ=     4.6061   ZZ=   213.0756
   Eigenvalues:   211.9256   218.4458   226.5663
      7  C    Isotropic =   218.4191   Anisotropy =    15.0731
   XX=   225.4222   YX=    -5.5301   ZX=     1.3198
   XY=    -5.7857   YY=   217.1011   ZY=     4.5738
   XZ=     4.6091   YZ=    -0.1921   ZZ=   212.7339
   Eigenvalues:   210.0157   216.7737   228.4678
      8  O    Isotropic =   361.0381   Anisotropy =    87.9556
   XX=   355.2486   YX=    -4.3215   ZX=    28.5701
   XY=    11.7401   YY=   335.5074   ZY=   -12.1850
   XZ=    51.0909   YZ=   -22.4715   ZZ=   392.3582
   Eigenvalues:   319.2736   344.1655   419.6752
      9  C    Isotropic =   210.3199   Anisotropy =    22.2691
   XX=   220.5038   YX=     4.7448   ZX=    -6.9248
   XY=     4.0713   YY=   206.6889   ZY=    -2.0272
   XZ=    -9.7347   YZ=    -1.5347   ZZ=   203.7670
   Eigenvalues:   200.3277   205.4660   225.1660
     10  C    Isotropic =   218.8542   Anisotropy =    30.0582
   XX=   233.1369   YX=    -6.3985   ZX=     8.7515
   XY=   -10.8937   YY=   207.2717   ZY=    -5.9342
   XZ=     5.4045   YZ=    -5.1468   ZZ=   216.1540
   Eigenvalues:   203.6285   214.0412   238.8931
     11  C    Isotropic =   222.5515   Anisotropy =    18.5850
   XX=   219.5918   YX=     0.8708   ZX=    -0.8736
   XY=     0.5637   YY=   213.1967   ZY=     0.1080
   XZ=     2.6383   YZ=    -1.6597   ZZ=   234.8659
   Eigenvalues:   213.0824   219.6304   234.9415
     12  H    Isotropic =    32.5500   Anisotropy =    14.2248
   XX=    35.1938   YX=     6.7598   ZX=    -0.0791
   XY=     6.6705   YY=    35.3004   ZY=     1.9195
   XZ=    -0.3093   YZ=     1.3443   ZZ=    27.1559
   Eigenvalues:    26.3348    29.2820    42.0332
     13  H    Isotropic =    32.6176   Anisotropy =    14.5125
   XX=    39.3682   YX=    -4.8136   ZX=    -2.8962
   XY=    -4.8403   YY=    31.3436   ZY=     0.5732
   XZ=    -3.2747   YZ=     1.1522   ZZ=    27.1409
   Eigenvalues:    26.3823    29.1779    42.2926
     14  H    Isotropic =    32.6056   Anisotropy =     8.4958
   XX=    33.0431   YX=     1.2325   ZX=    -0.6691
   XY=     1.0431   YY=    27.3846   ZY=    -2.7388
   XZ=    -0.7551   YZ=    -2.7246   ZZ=    37.3890
   Eigenvalues:    26.5534    32.9939    38.2695
     15  H    Isotropic =    32.3409   Anisotropy =    14.8742
   XX=    32.4364   YX=    -0.7660   ZX=     6.4541
   XY=    -0.7897   YY=    26.8982   ZY=    -1.7222
   XZ=     6.4720   YZ=    -1.6487   ZZ=    37.6880
   Eigenvalues:    26.6207    28.1449    42.2570
     16  H    Isotropic =    31.9318   Anisotropy =     9.5183
   XX=    32.4685   YX=     1.8996   ZX=    -3.0455
   XY=     0.6460   YY=    30.7614   ZY=    -4.4048
   XZ=    -3.2046   YZ=    -5.0273   ZZ=    32.5655
   Eigenvalues:    26.6476    30.8705    38.2773
     17  H    Isotropic =    32.4988   Anisotropy =    12.4084
   XX=    32.4715   YX=    -0.5625   ZX=    -5.0824
   XY=    -0.4575   YY=    27.1737   ZY=     1.2501
   XZ=    -4.4097   YZ=     1.5085   ZZ=    37.8513
   Eigenvalues:    26.9959    29.7295    40.7711
     18  H    Isotropic =    32.5569   Anisotropy =    13.2851
   XX=    31.0170   YX=     2.2324   ZX=     1.6104
   XY=     2.6470   YY=    38.5948   ZY=     5.1920
   XZ=     1.3974   YZ=     4.9668   ZZ=    28.0587
   Eigenvalues:    25.9575    30.2995    41.4136
     19  H    Isotropic =    32.7971   Anisotropy =    11.7126
   XX=    32.3015   YX=    -0.9162   ZX=     2.8043
   XY=    -0.8038   YY=    26.9773   ZY=    -1.9346
   XZ=     3.4669   YZ=    -1.5068   ZZ=    39.1124
   Eigenvalues:    26.7011    31.0846    40.6054
     20  H    Isotropic =    32.6355   Anisotropy =    14.8703
   XX=    34.7340   YX=    -6.6734   ZX=     0.0463
   XY=    -6.5378   YY=    36.8385   ZY=     0.9980
   XZ=    -0.4296   YZ=     1.5485   ZZ=    26.3339
   Eigenvalues:    26.1061    29.2514    42.5490
     21  H    Isotropic =    32.5418   Anisotropy =    11.5262
   XX=    31.4962   YX=     1.6680   ZX=    -2.7875
   XY=     1.5580   YY=    32.1363   ZY=    -6.1001
   XZ=    -2.4850   YZ=    -5.9431   ZZ=    33.9928
   Eigenvalues:    26.9086    30.4908    40.2259
     22  H    Isotropic =    32.1733   Anisotropy =    13.9562
   XX=    31.5201   YX=     3.8661   ZX=     2.5706
   XY=     3.7597   YY=    37.8543   ZY=     4.7153
   XZ=     2.1487   YZ=     4.3942   ZZ=    27.1457
   Eigenvalues:    25.3044    29.7382    41.4775
     23  H    Isotropic =    32.1734   Anisotropy =    10.5393
   XX=    32.5877   YX=     0.6200   ZX=    -3.9296
   XY=     0.3798   YY=    26.8444   ZY=     0.6190
   XZ=    -3.5063   YZ=     0.9571   ZZ=    37.0880
   Eigenvalues:    26.6527    30.6679    39.1995
     24  H    Isotropic =    35.0040   Anisotropy =    17.4699
   XX=    34.7952   YX=    -6.1146   ZX=     6.8445
   XY=    -6.0100   YY=    34.4629   ZY=    -3.2588
   XZ=     7.7129   YZ=    -4.5829   ZZ=    35.7540
   Eigenvalues:    27.2257    31.1358    46.6506
     25  H    Isotropic =    32.5555   Anisotropy =    11.3827
   XX=    31.6688   YX=     2.6625   ZX=    -0.2379
   XY=     2.2504   YY=    38.8965   ZY=     2.8730
   XZ=    -0.2177   YZ=     2.5436   ZZ=    27.1012
   Eigenvalues:    26.3941    31.1285    40.1440
     26  H    Isotropic =    32.4234   Anisotropy =     9.2069
   XX=    33.4817   YX=    -2.7102   ZX=     0.1997
   XY=    -2.8575   YY=    37.0110   ZY=     0.6101
   XZ=     0.7762   YZ=     0.9989   ZZ=    26.7774
   Eigenvalues:    26.6338    32.0750    38.5613
     27  H    Isotropic =    32.7024   Anisotropy =    12.5217
   XX=    32.8887   YX=    -0.2733   ZX=     4.7828
   XY=    -0.2442   YY=    26.8045   ZY=    -0.5342
   XZ=     4.4829   YZ=     0.2224   ZZ=    38.4140
   Eigenvalues:    26.7933    30.2637    41.0502
     28  H    Isotropic =    32.4125   Anisotropy =    14.6482
   XX=    40.9502   YX=     3.7014   ZX=    -1.9589
   XY=     3.1822   YY=    27.8598   ZY=    -1.7274
   XZ=    -1.8246   YZ=    -1.8928   ZZ=    28.4276
   Eigenvalues:    26.1413    28.9183    42.1780
     29  H    Isotropic =    32.2292   Anisotropy =     8.3196
   XX=    29.1906   YX=     0.6736   ZX=    -2.2438
   XY=     0.6109   YY=    34.2979   ZY=     3.7370
   XZ=    -2.1061   YZ=     4.0196   ZZ=    33.1993
   Eigenvalues:    27.3729    31.5392    37.7756
     30  H    Isotropic =    32.5959   Anisotropy =     9.4725
   XX=    35.4714   YX=    -2.8854   ZX=     1.4708
   XY=    -2.8203   YY=    28.5625   ZY=    -4.4664
   XZ=     1.8650   YZ=    -4.5497   ZZ=    33.7538
   Eigenvalues:    25.6606    33.2163    38.9109
     31  H    Isotropic =    32.5101   Anisotropy =    14.9663
   XX=    35.1443   YX=     4.3166   ZX=    -5.6563
   XY=     4.0779   YY=    28.5068   ZY=    -4.0010
   XZ=    -5.4719   YZ=    -3.9034   ZZ=    33.8790
   Eigenvalues:    26.1239    28.9187    42.4876
 End of Minotr Frequency-dependent properties file   721 does not exist.
 End of Minotr Frequency-dependent properties file   722 does not exist.

 **********************************************************************

            Population analysis using the SCF density.

 **********************************************************************

 Orbital symmetries:
       Occupied  (A) (A) (A) (A) (A) (A) (A) (A) (A) (A) (A) (A)
                 (A) (A) (A) (A) (A) (A) (A) (A) (A) (A) (A) (A)
                 (A) (A) (A) (A) (A) (A) (A) (A) (A) (A) (A) (A)
                 (A) (A) (A) (A) (A) (A) (A) (A)
       Virtual   (A) (A) (A) (A) (A) (A) (A) (A) (A) (A) (A) (A)
                 (A) (A) (A) (A) (A) (A) (A) (A) (A) (A) (A) (A)
                 (A) (A) (A) (A) (A) (A) (A)
 The electronic state is 1-A.
 Alpha  occ. eigenvalues --  -20.23973 -11.08646 -11.04738 -11.04607 -11.04174
 Alpha  occ. eigenvalues --  -11.03730 -11.03587 -11.03386 -11.03100 -11.02764
 Alpha  occ. eigenvalues --  -11.02517  -1.28049  -1.08119  -1.03307  -0.96903
 Alpha  occ. eigenvalues --   -0.94611  -0.89252  -0.88069  -0.79537  -0.78689
 Alpha  occ. eigenvalues --   -0.73451  -0.67707  -0.62056  -0.61685  -0.59452
 Alpha  occ. eigenvalues --   -0.57807  -0.56134  -0.54008  -0.53069  -0.52712
 Alpha  occ. eigenvalues --   -0.51086  -0.50342  -0.49579  -0.48468  -0.46201
 Alpha  occ. eigenvalues --   -0.45874  -0.42986  -0.42517  -0.42066  -0.41933
 Alpha  occ. eigenvalues --   -0.39495  -0.38251  -0.36492  -0.32908
 Alpha virt. eigenvalues --    0.52292   0.55395   0.57625   0.59412   0.60610
 Alpha virt. eigenvalues --    0.61536   0.62375   0.63452   0.65255   0.66194
 Alpha virt. eigenvalues --    0.69396   0.70191   0.70793   0.71150   0.71780
 Alpha virt. eigenvalues --    0.72234   0.73005   0.74798   0.75695   0.76148
 Alpha virt. eigenvalues --    0.77023   0.79056   0.79743   0.80219   0.81489
 Alpha virt. eigenvalues --    0.81746   0.82341   0.83785   0.84130   0.85105
 Alpha virt. eigenvalues --    0.86618
          Condensed to atoms (all electrons):
              1          2          3          4          5          6
     1  C    4.744236   0.364245  -0.001304  -0.001346   0.000077  -0.024078
     2  C    0.364245   4.740714  -0.019139  -0.021402  -0.002981   0.363108
     3  C   -0.001304  -0.019139   4.737484  -0.020832   0.352988  -0.004634
     4  C   -0.001346  -0.021402  -0.020832   4.757756   0.358259   0.363463
     5  C    0.000077  -0.002981   0.352988   0.358259   4.798414  -0.020051
     6  C   -0.024078   0.363108  -0.004634   0.363463  -0.020051   4.755336
     7  C   -0.024273   0.362557   0.360499  -0.004300  -0.021231  -0.023187
     8  O    0.000001   0.000217   0.267459   0.000218  -0.017367   0.000002
     9  C    0.000000   0.000033  -0.016758  -0.021400   0.356480  -0.000158
    10  C    0.000000   0.000000   0.000082   0.000677  -0.022255  -0.000004
    11  C    0.000000   0.000036  -0.001461   0.000101  -0.018751  -0.000483
    12  H    0.382490  -0.020198   0.000022   0.000004  -0.000002   0.001254
    13  H    0.382320  -0.020225   0.000007   0.000028  -0.000001  -0.002306
    14  H    0.382420  -0.019916  -0.000447  -0.000384   0.000045  -0.001660
    15  H   -0.025221   0.383639   0.001170   0.001224  -0.000001  -0.023279
    16  H   -0.000466  -0.001156   0.376445  -0.000570  -0.027082   0.000090
    17  H   -0.000416  -0.001385  -0.000715   0.381165  -0.022623  -0.023955
    18  H    0.000008   0.001211   0.001060   0.382831  -0.020567  -0.021780
    19  H   -0.000001   0.000011  -0.025483  -0.024535   0.380068   0.001263
    20  H   -0.003382  -0.021376   0.000029  -0.021748   0.001154   0.382226
    21  H    0.001314  -0.022290   0.000055  -0.023151  -0.001044   0.382038
    22  H   -0.003415  -0.020689  -0.021622   0.000022   0.001113   0.001205
    23  H    0.001316  -0.021453  -0.022192   0.000090  -0.001102  -0.001049
    24  H    0.000000  -0.000038  -0.041441  -0.000009  -0.001744   0.000000
    25  H    0.000000   0.000000   0.000953  -0.005299  -0.023311   0.000077
    26  H    0.000000   0.000000   0.000079  -0.000003  -0.001084   0.000000
    27  H    0.000000   0.000000   0.000025   0.000036  -0.002860   0.000000
    28  H    0.000000   0.000000  -0.000012  -0.000015   0.001157   0.000000
    29  H    0.000000   0.000004   0.000001  -0.000003  -0.001239   0.000023
    30  H    0.000000  -0.000017   0.000020   0.000109  -0.001416  -0.000985
    31  H    0.000000   0.000000   0.000003  -0.000011   0.001069   0.000007
              7          8          9         10         11         12
     1  C   -0.024273   0.000001   0.000000   0.000000   0.000000   0.382490
     2  C    0.362557   0.000217   0.000033   0.000000   0.000036  -0.020198
     3  C    0.360499   0.267459  -0.016758   0.000082  -0.001461   0.000022
     4  C   -0.004300   0.000218  -0.021400   0.000677   0.000101   0.000004
     5  C   -0.021231  -0.017367   0.356480  -0.022255  -0.018751  -0.000002
     6  C   -0.023187   0.000002  -0.000158  -0.000004  -0.000483   0.001254
     7  C    4.765725  -0.018492  -0.000239  -0.000004  -0.000958  -0.002329
     8  O   -0.018492   7.844883  -0.000328  -0.000758  -0.000290   0.000000
     9  C   -0.000239  -0.000328   4.739022   0.363632   0.363783   0.000000
    10  C   -0.000004  -0.000758   0.363632   4.750147  -0.026748   0.000000
    11  C   -0.000958  -0.000290   0.363783  -0.026748   4.744496   0.000000
    12  H   -0.002329   0.000000   0.000000   0.000000   0.000000   0.630085
    13  H    0.001260   0.000000   0.000000   0.000000   0.000000  -0.021564
    14  H   -0.001631   0.000000  -0.000001   0.000000   0.000000  -0.022005
    15  H   -0.023232  -0.000004  -0.000002   0.000000   0.000006  -0.002484
    16  H   -0.026224  -0.019649   0.001042  -0.000015  -0.000004   0.000043
    17  H    0.000053   0.000000   0.001226  -0.000019  -0.000014  -0.000003
    18  H    0.000007  -0.000004  -0.004132   0.000050   0.000062   0.000000
    19  H    0.001214  -0.000389  -0.025942  -0.005844   0.001145   0.000000
    20  H    0.001221   0.000000  -0.000008   0.000000   0.000008   0.000040
    21  H   -0.001071  -0.000001   0.000136  -0.000002  -0.001022  -0.000035
    22  H    0.381285  -0.000450  -0.000008   0.000000   0.000015   0.000168
    23  H    0.381239  -0.000649   0.000061   0.000003  -0.001678   0.000030
    24  H    0.002644   0.258125  -0.000044  -0.000704   0.000052   0.000000
    25  H   -0.000015  -0.000006   0.381846  -0.025885  -0.025207   0.000000
    26  H    0.000001  -0.000259  -0.019914   0.382370  -0.002516   0.000000
    27  H    0.000000   0.000015  -0.020154   0.381861   0.001322   0.000000
    28  H    0.000000   0.000011  -0.019725   0.382014  -0.002142   0.000000
    29  H   -0.000841   0.000246  -0.020242  -0.002586   0.383272   0.000000
    30  H   -0.000534   0.000011  -0.020015   0.001371   0.383272   0.000000
    31  H    0.000022   0.000003  -0.020078  -0.002605   0.381503   0.000000
             13         14         15         16         17         18
     1  C    0.382320   0.382420  -0.025221  -0.000466  -0.000416   0.000008
     2  C   -0.020225  -0.019916   0.383639  -0.001156  -0.001385   0.001211
     3  C    0.000007  -0.000447   0.001170   0.376445  -0.000715   0.001060
     4  C    0.000028  -0.000384   0.001224  -0.000570   0.381165   0.382831
     5  C   -0.000001   0.000045  -0.000001  -0.027082  -0.022623  -0.020567
     6  C   -0.002306  -0.001660  -0.023279   0.000090  -0.023955  -0.021780
     7  C    0.001260  -0.001631  -0.023232  -0.026224   0.000053   0.000007
     8  O    0.000000   0.000000  -0.000004  -0.019649   0.000000  -0.000004
     9  C    0.000000  -0.000001  -0.000002   0.001042   0.001226  -0.004132
    10  C    0.000000   0.000000   0.000000  -0.000015  -0.000019   0.000050
    11  C    0.000000   0.000000   0.000006  -0.000004  -0.000014   0.000062
    12  H   -0.021564  -0.022005  -0.002484   0.000043  -0.000003   0.000000
    13  H    0.631154  -0.022001  -0.002482  -0.000001   0.000046  -0.000004
    14  H   -0.022001   0.632708   0.001919  -0.000527  -0.000516  -0.000004
    15  H   -0.002482   0.001919   0.648079  -0.000011  -0.000008  -0.000031
    16  H   -0.000001  -0.000527  -0.000011   0.670148   0.000100  -0.000011
    17  H    0.000046  -0.000516  -0.000008   0.000100   0.651216  -0.024019
    18  H   -0.000004  -0.000004  -0.000031  -0.000011  -0.024019   0.639275
    19  H    0.000000   0.000008   0.000003  -0.005026  -0.005365  -0.000844
    20  H    0.000170   0.000020  -0.001206  -0.000007  -0.003296  -0.001694
    21  H    0.000031  -0.000002  -0.003788   0.000003   0.002060  -0.003034
    22  H    0.000042   0.000019  -0.001196  -0.003429  -0.000007   0.000002
    23  H   -0.000035  -0.000003  -0.003932   0.001995   0.000003  -0.000008
    24  H    0.000000   0.000001   0.000001  -0.004800   0.000001   0.000000
    25  H    0.000000   0.000000   0.000000  -0.000028   0.000084  -0.000022
    26  H    0.000000   0.000000   0.000000  -0.000003   0.000000  -0.000001
    27  H    0.000000   0.000000   0.000000  -0.000001  -0.000002   0.000010
    28  H    0.000000   0.000000   0.000000   0.000001   0.000000  -0.000003
    29  H    0.000000   0.000000   0.000001   0.000001   0.000000  -0.000001
    30  H    0.000000   0.000000   0.000010  -0.000004  -0.000005   0.000038
    31  H    0.000000   0.000000   0.000000   0.000001   0.000001  -0.000006
             19         20         21         22         23         24
     1  C   -0.000001  -0.003382   0.001314  -0.003415   0.001316   0.000000
     2  C    0.000011  -0.021376  -0.022290  -0.020689  -0.021453  -0.000038
     3  C   -0.025483   0.000029   0.000055  -0.021622  -0.022192  -0.041441
     4  C   -0.024535  -0.021748  -0.023151   0.000022   0.000090  -0.000009
     5  C    0.380068   0.001154  -0.001044   0.001113  -0.001102  -0.001744
     6  C    0.001263   0.382226   0.382038   0.001205  -0.001049   0.000000
     7  C    0.001214   0.001221  -0.001071   0.381285   0.381239   0.002644
     8  O   -0.000389   0.000000  -0.000001  -0.000450  -0.000649   0.258125
     9  C   -0.025942  -0.000008   0.000136  -0.000008   0.000061  -0.000044
    10  C   -0.005844   0.000000  -0.000002   0.000000   0.000003  -0.000704
    11  C    0.001145   0.000008  -0.001022   0.000015  -0.001678   0.000052
    12  H    0.000000   0.000040  -0.000035   0.000168   0.000030   0.000000
    13  H    0.000000   0.000170   0.000031   0.000042  -0.000035   0.000000
    14  H    0.000008   0.000020  -0.000002   0.000019  -0.000003   0.000001
    15  H    0.000003  -0.001206  -0.003788  -0.001196  -0.003932   0.000001
    16  H   -0.005026  -0.000007   0.000003  -0.003429   0.001995  -0.004800
    17  H   -0.005365  -0.003296   0.002060  -0.000007   0.000003   0.000001
    18  H   -0.000844  -0.001694  -0.003034   0.000002  -0.000008   0.000000
    19  H    0.668822  -0.000032  -0.000010  -0.000033  -0.000012   0.000440
    20  H   -0.000032   0.641251  -0.023960  -0.000032   0.000003   0.000000
    21  H   -0.000010  -0.023960   0.644641   0.000000   0.000131   0.000000
    22  H   -0.000033  -0.000032   0.000000   0.634694  -0.024578   0.000015
    23  H   -0.000012   0.000003   0.000131  -0.024578   0.632976   0.000016
    24  H    0.000440   0.000000   0.000000   0.000015   0.000016   0.610192
    25  H   -0.000344  -0.000010   0.000058   0.000001  -0.000007  -0.000003
    26  H    0.000042   0.000000   0.000000   0.000000  -0.000001  -0.000837
    27  H    0.000025   0.000000   0.000000   0.000000   0.000000  -0.000005
    28  H    0.000090   0.000000   0.000000   0.000000   0.000000   0.000011
    29  H    0.000004   0.000000   0.000009   0.000023  -0.000752  -0.000035
    30  H    0.000003   0.000013  -0.000604   0.000010  -0.000626  -0.000002
    31  H   -0.000032   0.000000   0.000018   0.000000   0.000040  -0.000001
             25         26         27         28         29         30
     1  C    0.000000   0.000000   0.000000   0.000000   0.000000   0.000000
     2  C    0.000000   0.000000   0.000000   0.000000   0.000004  -0.000017
     3  C    0.000953   0.000079   0.000025  -0.000012   0.000001   0.000020
     4  C   -0.005299  -0.000003   0.000036  -0.000015  -0.000003   0.000109
     5  C   -0.023311  -0.001084  -0.002860   0.001157  -0.001239  -0.001416
     6  C    0.000077   0.000000   0.000000   0.000000   0.000023  -0.000985
     7  C   -0.000015   0.000001   0.000000   0.000000  -0.000841  -0.000534
     8  O   -0.000006  -0.000259   0.000015   0.000011   0.000246   0.000011
     9  C    0.381846  -0.019914  -0.020154  -0.019725  -0.020242  -0.020015
    10  C   -0.025885   0.382370   0.381861   0.382014  -0.002586   0.001371
    11  C   -0.025207  -0.002516   0.001322  -0.002142   0.383272   0.383272
    12  H    0.000000   0.000000   0.000000   0.000000   0.000000   0.000000
    13  H    0.000000   0.000000   0.000000   0.000000   0.000000   0.000000
    14  H    0.000000   0.000000   0.000000   0.000000   0.000000   0.000000
    15  H    0.000000   0.000000   0.000000   0.000000   0.000001   0.000010
    16  H   -0.000028  -0.000003  -0.000001   0.000001   0.000001  -0.000004
    17  H    0.000084   0.000000  -0.000002   0.000000   0.000000  -0.000005
    18  H   -0.000022  -0.000001   0.000010  -0.000003  -0.000001   0.000038
    19  H   -0.000344   0.000042   0.000025   0.000090   0.000004   0.000003
    20  H   -0.000010   0.000000   0.000000   0.000000   0.000000   0.000013
    21  H    0.000058   0.000000   0.000000   0.000000   0.000009  -0.000604
    22  H    0.000001   0.000000   0.000000   0.000000   0.000023   0.000010
    23  H   -0.000007  -0.000001   0.000000   0.000000  -0.000752  -0.000626
    24  H   -0.000003  -0.000837  -0.000005   0.000011  -0.000035  -0.000002
    25  H    0.656117   0.001954  -0.002004  -0.003196   0.001949  -0.002027
    26  H    0.001954   0.626192  -0.021934  -0.021966   0.000354   0.000015
    27  H   -0.002004  -0.021934   0.637663  -0.021967   0.000016  -0.000038
    28  H   -0.003196  -0.021966  -0.021967   0.632505  -0.000012   0.000026
    29  H    0.001949   0.000354   0.000016  -0.000012   0.618051  -0.021386
    30  H   -0.002027   0.000015  -0.000038   0.000026  -0.021386   0.632565
    31  H   -0.003020  -0.000015   0.000036   0.000032  -0.022033  -0.022449
             31
     1  C    0.000000
     2  C    0.000000
     3  C    0.000003
     4  C   -0.000011
     5  C    0.001069
     6  C    0.000007
     7  C    0.000022
     8  O    0.000003
     9  C   -0.020078
    10  C   -0.002605
    11  C    0.381503
    12  H    0.000000
    13  H    0.000000
    14  H    0.000000
    15  H    0.000000
    16  H    0.000001
    17  H    0.000001
    18  H   -0.000006
    19  H   -0.000032
    20  H    0.000000
    21  H    0.000018
    22  H    0.000000
    23  H    0.000040
    24  H   -0.000001
    25  H   -0.003020
    26  H   -0.000015
    27  H    0.000036
    28  H    0.000032
    29  H   -0.022033
    30  H   -0.022449
    31  H    0.635062
 Mulliken atomic charges:
              1
     1  C   -0.174525
     2  C   -0.023509
     3  C    0.077659
     4  C   -0.100974
     5  C   -0.044109
     6  C   -0.102483
     7  C   -0.109167
     8  O   -0.312542
     9  C   -0.018113
    10  C   -0.174780
    11  C   -0.177796
    12  H    0.054484
    13  H    0.053561
    14  H    0.051955
    15  H    0.050825
    16  H    0.039147
    17  H    0.046391
    18  H    0.051610
    19  H    0.040754
    20  H    0.050613
    21  H    0.049521
    22  H    0.056845
    23  H    0.060175
    24  H    0.178164
    25  H    0.047344
    26  H    0.057527
    27  H    0.047959
    28  H    0.053190
    29  H    0.065175
    30  H    0.052643
    31  H    0.052454
 Sum of Mulliken atomic charges =   0.00000
 Mulliken charges with hydrogens summed into heavy atoms:
              1
     1  C   -0.014525
     2  C    0.027316
     3  C    0.116806
     4  C   -0.002973
     5  C   -0.003355
     6  C   -0.002349
     7  C    0.007853
     8  O   -0.134378
     9  C    0.029231
    10  C   -0.016103
    11  C   -0.007524
 Sum of Mulliken charges with hydrogens summed into heavy atoms =   0.00000
 Electronic spatial extent (au):  <R**2>=           1943.3833
 Charge=              0.0000 electrons
 Dipole moment (field-independent basis, Debye):
    X=              0.2171    Y=             -0.6975    Z=             -1.1240  Tot=              1.3405
 Quadrupole moment (field-independent basis, Debye-Ang):
   XX=            -67.3649   YY=            -69.5385   ZZ=            -66.4678
   XY=              0.3922   XZ=              1.6073   YZ=             -2.7005
 Traceless Quadrupole moment (field-independent basis, Debye-Ang):
   XX=              0.4255   YY=             -1.7481   ZZ=              1.3226
   XY=              0.3922   XZ=              1.6073   YZ=             -2.7005
 Octapole moment (field-independent basis, Debye-Ang**2):
  XXX=             -6.3996  YYY=              6.5421  ZZZ=             -2.1857  XYY=             -1.5304
  XXY=              3.9303  XXZ=              0.1191  XZZ=             -2.7455  YZZ=              6.7255
  YYZ=             -5.8088  XYZ=              3.9688
 Hexadecapole moment (field-independent basis, Debye-Ang**3):
 XXXX=          -1574.2940 YYYY=           -548.9551 ZZZZ=           -362.6748 XXXY=            -13.5381
 XXXZ=              0.4117 YYYX=             -9.3223 YYYZ=            -12.4073 ZZZX=              4.7506
 ZZZY=             -4.5579 XXYY=           -339.9224 XXZZ=           -321.2366 YYZZ=           -146.2965
 XXYZ=             -3.9054 YYXZ=              8.2451 ZZXY=             -6.4393
 N-N= 7.056950678916D+02 E-N=-2.483398604684D+03  KE= 4.555510520705D+02
 ******************************Gaussian NBO Version 3.1******************************
             N A T U R A L   A T O M I C   O R B I T A L   A N D
          N A T U R A L   B O N D   O R B I T A L   A N A L Y S I S
 ******************************Gaussian NBO Version 3.1******************************
       /RESON  / : Allow strongly delocalized NBO set
       /NLMO   / : Form Natural Localized Molecular Orbitals
       /NMR /    : Analyze NMR Sheilding Tensor 

 Analyzing the SCF density

 Job title: comment                                                         

 Storage needed:     19864 in NPA,     23691 in NBO,     45933 in NLMO (  33549317 available)


 NATURAL POPULATIONS:  Natural atomic orbital occupancies 
                                                          
   NAO  Atom  No  lang   Type(AO)    Occupancy      Energy
 ----------------------------------------------------------
     1    C    1  S      Cor( 1S)     1.99997     -10.96465
     2    C    1  S      Val( 2S)     1.07999      -0.18206
     3    C    1  px     Val( 2p)     1.00970       0.08343
     4    C    1  py     Val( 2p)     1.02672       0.08340
     5    C    1  pz     Val( 2p)     1.01331       0.08804

     6    C    2  S      Cor( 1S)     1.99997     -10.98994
     7    C    2  S      Val( 2S)     1.07892      -0.19174
     8    C    2  px     Val( 2p)     0.96008       0.10980
     9    C    2  py     Val( 2p)     0.95776       0.11020
    10    C    2  pz     Val( 2p)     0.98748       0.10074

    11    C    3  S      Cor( 1S)     1.99989     -11.03556
    12    C    3  S      Val( 2S)     1.08566      -0.21527
    13    C    3  px     Val( 2p)     0.89695       0.10448
    14    C    3  py     Val( 2p)     0.89372       0.11076
    15    C    3  pz     Val( 2p)     0.97840       0.08709

    16    C    4  S      Cor( 1S)     1.99996     -10.97598
    17    C    4  S      Val( 2S)     1.08546      -0.19100
    18    C    4  px     Val( 2p)     0.98838       0.09590
    19    C    4  py     Val( 2p)     0.99581       0.09483
    20    C    4  pz     Val( 2p)     0.99321       0.09415

    21    C    5  S      Cor( 1S)     1.99995     -10.98788
    22    C    5  S      Val( 2S)     1.10588      -0.21436
    23    C    5  px     Val( 2p)     0.96112       0.10819
    24    C    5  py     Val( 2p)     0.96376       0.10439
    25    C    5  pz     Val( 2p)     0.99196       0.09233

    26    C    6  S      Cor( 1S)     1.99996     -10.97365
    27    C    6  S      Val( 2S)     1.08154      -0.18565
    28    C    6  px     Val( 2p)     1.00098       0.09418
    29    C    6  py     Val( 2p)     0.98689       0.09652
    30    C    6  pz     Val( 2p)     0.99654       0.09759

    31    C    7  S      Cor( 1S)     1.99995     -10.97219
    32    C    7  S      Val( 2S)     1.08863      -0.19070
    33    C    7  px     Val( 2p)     0.99502       0.09365
    34    C    7  py     Val( 2p)     1.00516       0.09433
    35    C    7  pz     Val( 2p)     0.99778       0.09505

    36    O    8  S      Cor( 1S)     1.99999     -20.14282
    37    O    8  S      Val( 2S)     1.74869      -0.99983
    38    O    8  px     Val( 2p)     1.48937      -0.16924
    39    O    8  py     Val( 2p)     1.61786      -0.22553
    40    O    8  pz     Val( 2p)     1.47745      -0.18237

    41    C    9  S      Cor( 1S)     1.99996     -10.99053
    42    C    9  S      Val( 2S)     1.08639      -0.19572
    43    C    9  px     Val( 2p)     0.94672       0.11277
    44    C    9  py     Val( 2p)     0.98983       0.10241
    45    C    9  pz     Val( 2p)     0.95311       0.11762

    46    C   10  S      Cor( 1S)     1.99997     -10.96150
    47    C   10  S      Val( 2S)     1.08325      -0.18140
    48    C   10  px     Val( 2p)     1.00216       0.08760
    49    C   10  py     Val( 2p)     1.02605       0.08664
    50    C   10  pz     Val( 2p)     1.01868       0.08893

    51    C   11  S      Cor( 1S)     1.99997     -10.95832
    52    C   11  S      Val( 2S)     1.07957      -0.17460
    53    C   11  px     Val( 2p)     1.02932       0.08848
    54    C   11  py     Val( 2p)     1.03616       0.08770
    55    C   11  pz     Val( 2p)     0.98983       0.09503

    56    H   12  S      Val( 1S)     0.96280       0.07508

    57    H   13  S      Val( 1S)     0.96363       0.07427

    58    H   14  S      Val( 1S)     0.96535       0.07399

    59    H   15  S      Val( 1S)     0.97345       0.06768

    60    H   16  S      Val( 1S)     0.99617       0.04737

    61    H   17  S      Val( 1S)     0.97461       0.06802

    62    H   18  S      Val( 1S)     0.96944       0.07087

    63    H   19  S      Val( 1S)     0.98405       0.05840

    64    H   20  S      Val( 1S)     0.96968       0.07086

    65    H   21  S      Val( 1S)     0.97151       0.07582

    66    H   22  S      Val( 1S)     0.96381       0.07780

    67    H   23  S      Val( 1S)     0.96147       0.08376

    68    H   24  S      Val( 1S)     0.80922       0.07589

    69    H   25  S      Val( 1S)     0.97823       0.06740

    70    H   26  S      Val( 1S)     0.96083       0.08209

    71    H   27  S      Val( 1S)     0.96916       0.07227

    72    H   28  S      Val( 1S)     0.96404       0.07628

    73    H   29  S      Val( 1S)     0.95303       0.09195

    74    H   30  S      Val( 1S)     0.96471       0.08370

    75    H   31  S      Val( 1S)     0.96404       0.07837


 Summary of Natural Population Analysis:                  
                                                          
                                       Natural Population 
                Natural  -----------------------------------------------
    Atom  No    Charge         Core      Valence    Rydberg      Total
 -----------------------------------------------------------------------
      C    1   -0.12969      1.99997     4.12972    0.00000     6.12969
      C    2    0.01579      1.99997     3.98424    0.00000     5.98421
      C    3    0.14539      1.99989     3.85473    0.00000     5.85461
      C    4   -0.06282      1.99996     4.06286    0.00000     6.06282
      C    5   -0.02268      1.99995     4.02273    0.00000     6.02268
      C    6   -0.06592      1.99996     4.06596    0.00000     6.06592
      C    7   -0.08654      1.99995     4.08659    0.00000     6.08654
      O    8   -0.33336      1.99999     6.33337    0.00000     8.33336
      C    9    0.02400      1.99996     3.97604    0.00000     5.97600
      C   10   -0.13012      1.99997     4.13015    0.00000     6.13012
      C   11   -0.13484      1.99997     4.13488    0.00000     6.13484
      H   12    0.03720      0.00000     0.96280    0.00000     0.96280
      H   13    0.03637      0.00000     0.96363    0.00000     0.96363
      H   14    0.03465      0.00000     0.96535    0.00000     0.96535
      H   15    0.02655      0.00000     0.97345    0.00000     0.97345
      H   16    0.00383      0.00000     0.99617    0.00000     0.99617
      H   17    0.02539      0.00000     0.97461    0.00000     0.97461
      H   18    0.03056      0.00000     0.96944    0.00000     0.96944
      H   19    0.01595      0.00000     0.98405    0.00000     0.98405
      H   20    0.03032      0.00000     0.96968    0.00000     0.96968
      H   21    0.02849      0.00000     0.97151    0.00000     0.97151
      H   22    0.03619      0.00000     0.96381    0.00000     0.96381
      H   23    0.03853      0.00000     0.96147    0.00000     0.96147
      H   24    0.19078      0.00000     0.80922    0.00000     0.80922
      H   25    0.02177      0.00000     0.97823    0.00000     0.97823
      H   26    0.03917      0.00000     0.96083    0.00000     0.96083
      H   27    0.03084      0.00000     0.96916    0.00000     0.96916
      H   28    0.03596      0.00000     0.96404    0.00000     0.96404
      H   29    0.04697      0.00000     0.95303    0.00000     0.95303
      H   30    0.03529      0.00000     0.96471    0.00000     0.96471
      H   31    0.03596      0.00000     0.96404    0.00000     0.96404
 =======================================================================
   * Total *    0.00000     21.99953    66.00047    0.00000    88.00000

                                 Natural Population      
 --------------------------------------------------------
   Core                      21.99953 ( 99.9978% of  22)
   Valence                   66.00047 (100.0007% of  66)
   Natural Minimal Basis     88.00000 (100.0000% of  88)
   Natural Rydberg Basis      0.00000 (  0.0000% of  88)
 --------------------------------------------------------

    Atom  No          Natural Electron Configuration
 ----------------------------------------------------------------------------
      C    1      [core]2S( 1.08)2p( 3.05)
      C    2      [core]2S( 1.08)2p( 2.91)
      C    3      [core]2S( 1.09)2p( 2.77)
      C    4      [core]2S( 1.09)2p( 2.98)
      C    5      [core]2S( 1.11)2p( 2.92)
      C    6      [core]2S( 1.08)2p( 2.98)
      C    7      [core]2S( 1.09)2p( 3.00)
      O    8      [core]2S( 1.75)2p( 4.58)
      C    9      [core]2S( 1.09)2p( 2.89)
      C   10      [core]2S( 1.08)2p( 3.05)
      C   11      [core]2S( 1.08)2p( 3.06)
      H   12            1S( 0.96)
      H   13            1S( 0.96)
      H   14            1S( 0.97)
      H   15            1S( 0.97)
      H   16            1S( 1.00)
      H   17            1S( 0.97)
      H   18            1S( 0.97)
      H   19            1S( 0.98)
      H   20            1S( 0.97)
      H   21            1S( 0.97)
      H   22            1S( 0.96)
      H   23            1S( 0.96)
      H   24            1S( 0.81)
      H   25            1S( 0.98)
      H   26            1S( 0.96)
      H   27            1S( 0.97)
      H   28            1S( 0.96)
      H   29            1S( 0.95)
      H   30            1S( 0.96)
      H   31            1S( 0.96)


 NATURAL BOND ORBITAL ANALYSIS:

                       Occupancies       Lewis Structure    Low   High
           Occ.    -------------------  -----------------   occ   occ
  Cycle   Thresh.   Lewis   Non-Lewis     CR  BD  3C  LP    (L)   (NL)   Dev
 =============================================================================
   1(1)    1.90    87.63411   0.36589     11  31   0   2     0      0    0.02
 -----------------------------------------------------------------------------

 Structure accepted: No low occupancy Lewis orbitals

 --------------------------------------------------------
   Core                     21.99952 ( 99.998% of  22)
   Valence Lewis            65.63459 ( 99.446% of  66)
  ==================       ============================
   Total Lewis              87.63411 ( 99.584% of  88)
  -----------------------------------------------------
   Valence non-Lewis         0.36589 (  0.416% of  88)
   Rydberg non-Lewis         0.00000 (  0.000% of  88)
  ==================       ============================
   Total non-Lewis           0.36589 (  0.416% of  88)
 --------------------------------------------------------


       (Occupancy)   Bond orbital/ Coefficients/ Hybrids
 ---------------------------------------------------------------------------------
     1. (1.99042) BD ( 1) C   1 - C   2  
                ( 50.97%)   0.7139* C   1 s( 25.82%)p 2.87( 74.18%)
                                            0.0001  0.5082 -0.6110 -0.2444  0.5556
                ( 49.03%)   0.7002* C   2 s( 24.98%)p 3.00( 75.02%)
                                            0.0000  0.4998  0.5807  0.2476 -0.5930
     2. (1.99486) BD ( 1) C   1 - H  12  
                ( 51.86%)   0.7202* C   1 s( 24.64%)p 3.06( 75.36%)
                                            0.0000  0.4964  0.3682  0.7365  0.2748
                ( 48.14%)   0.6938* H  12 s(100.00%)
                                            1.0000
     3. (1.99486) BD ( 1) C   1 - H  13  
                ( 51.82%)   0.7199* C   1 s( 24.62%)p 3.06( 75.38%)
                                            0.0000  0.4962  0.6080 -0.6172 -0.0567
                ( 48.18%)   0.6941* H  13 s(100.00%)
                                            1.0000
     4. (1.99502) BD ( 1) C   1 - H  14  
                ( 51.79%)   0.7196* C   1 s( 24.92%)p 3.01( 75.08%)
                                            0.0000  0.4992 -0.3485  0.1298 -0.7826
                ( 48.21%)   0.6943* H  14 s(100.00%)
                                            1.0000
     5. (1.98505) BD ( 1) C   2 - C   6  
                ( 49.64%)   0.7046* C   2 s( 25.21%)p 2.97( 74.79%)
                                            0.0000  0.5020 -0.3674 -0.7430 -0.2469
                ( 50.36%)   0.7096* C   6 s( 25.49%)p 2.92( 74.51%)
                                            0.0001  0.5048  0.3510  0.7618  0.2040
     6. (1.98299) BD ( 1) C   2 - C   7  
                ( 49.43%)   0.7031* C   2 s( 25.21%)p 2.97( 74.79%)
                                            0.0000  0.5021 -0.6062  0.6109  0.0846
                ( 50.57%)   0.7111* C   7 s( 25.78%)p 2.88( 74.22%)
                                            0.0001  0.5077  0.5904 -0.6121 -0.1378
     7. (1.98436) BD ( 1) C   2 - H  15  
                ( 51.21%)   0.7156* C   2 s( 24.61%)p 3.06( 75.39%)
                                            0.0000  0.4961  0.4003 -0.1159  0.7617
                ( 48.79%)   0.6985* H  15 s(100.00%)
                                            1.0000
     8. (1.98292) BD ( 1) C   3 - C   5  
                ( 49.78%)   0.7055* C   3 s( 26.10%)p 2.83( 73.90%)
                                            0.0001  0.5109 -0.3754 -0.7470 -0.2002
                ( 50.22%)   0.7087* C   5 s( 25.78%)p 2.88( 74.22%)
                                            0.0000  0.5078  0.3421  0.7278  0.3090
     9. (1.98775) BD ( 1) C   3 - C   7  
                ( 50.06%)   0.7075* C   3 s( 26.58%)p 2.76( 73.42%)
                                            0.0000  0.5155  0.5115 -0.0872  0.6819
                ( 49.94%)   0.7067* C   7 s( 25.36%)p 2.94( 74.64%)
                                            0.0001  0.5035 -0.5410  0.0471 -0.6720
    10. (1.98839) BD ( 1) C   3 - O   8  
                ( 41.09%)   0.6410* C   3 s( 22.62%)p 3.42( 77.38%)
                                            0.0000  0.4756 -0.6256  0.5900  0.1852
                ( 58.91%)   0.7675* O   8 s( 16.51%)p 5.06( 83.49%)
                                            0.0000  0.4064  0.5979 -0.6439 -0.2504
    11. (1.98814) BD ( 1) C   3 - H  16  
                ( 50.44%)   0.7102* C   3 s( 24.71%)p 3.05( 75.29%)
                                            0.0000  0.4971  0.4539  0.2937 -0.6787
                ( 49.56%)   0.7040* H  16 s(100.00%)
                                            1.0000
    12. (1.98329) BD ( 1) C   4 - C   5  
                ( 50.38%)   0.7098* C   4 s( 25.52%)p 2.92( 74.48%)
                                            0.0001  0.5052 -0.5994  0.6079  0.1265
                ( 49.62%)   0.7044* C   5 s( 24.98%)p 3.00( 75.02%)
                                            0.0000  0.4998  0.6049 -0.6190 -0.0332
    13. (1.99123) BD ( 1) C   4 - C   6  
                ( 49.99%)   0.7071* C   4 s( 25.53%)p 2.92( 74.47%)
                                            0.0000  0.5052  0.5227 -0.0470  0.6850
                ( 50.01%)   0.7071* C   6 s( 25.45%)p 2.93( 74.55%)
                                            0.0000  0.5044 -0.5411  0.0934 -0.6664
    14. (1.99024) BD ( 1) C   4 - H  17  
                ( 51.26%)   0.7160* C   4 s( 23.99%)p 3.17( 76.01%)
                                            0.0000  0.4898  0.4698  0.2029 -0.7058
                ( 48.74%)   0.6981* H  17 s(100.00%)
                                            1.0000
    15. (1.98922) BD ( 1) C   4 - H  18  
                ( 51.50%)   0.7177* C   4 s( 24.96%)p 3.01( 75.04%)
                                            0.0000  0.4996 -0.3832 -0.7662 -0.1286
                ( 48.50%)   0.6964* H  18 s(100.00%)
                                            1.0000
    16. (1.98016) BD ( 1) C   5 - C   9  
                ( 50.28%)   0.7091* C   5 s( 25.88%)p 2.86( 74.12%)
                                            0.0001  0.5087 -0.6559 -0.2568  0.4950
                ( 49.72%)   0.7051* C   9 s( 25.69%)p 2.89( 74.31%)
                                            0.0001  0.5068  0.7021  0.3197 -0.3846
    17. (1.98321) BD ( 1) C   5 - H  19  
                ( 50.65%)   0.7117* C   5 s( 23.36%)p 3.28( 76.64%)
                                            0.0000  0.4833 -0.2946  0.1458 -0.8114
                ( 49.35%)   0.7025* H  19 s(100.00%)
                                            1.0000
    18. (1.98915) BD ( 1) C   6 - H  20  
                ( 51.48%)   0.7175* C   6 s( 24.65%)p 3.06( 75.35%)
                                            0.0000  0.4965  0.6273 -0.5612 -0.2121
                ( 48.52%)   0.6966* H  20 s(100.00%)
                                            1.0000
    19. (1.98933) BD ( 1) C   6 - H  21  
                ( 51.42%)   0.7171* C   6 s( 24.41%)p 3.10( 75.59%)
                                            0.0000  0.4941 -0.4366 -0.3098  0.6851
                ( 48.58%)   0.6970* H  21 s(100.00%)
                                            1.0000
    20. (1.98887) BD ( 1) C   7 - H  22  
                ( 51.77%)   0.7195* C   7 s( 24.53%)p 3.08( 75.47%)
                                            0.0000  0.4953  0.3940  0.7667  0.1076
                ( 48.23%)   0.6945* H  22 s(100.00%)
                                            1.0000
    21. (1.98928) BD ( 1) C   7 - H  23  
                ( 51.94%)   0.7207* C   7 s( 24.34%)p 3.11( 75.66%)
                                            0.0000  0.4933 -0.4511 -0.1879  0.7196
                ( 48.06%)   0.6933* H  23 s(100.00%)
                                            1.0000
    22. (1.98915) BD ( 1) O   8 - H  24  
                ( 59.54%)   0.7716* O   8 s( 16.66%)p 5.00( 83.34%)
                                            0.0000 -0.4081  0.4550 -0.1381  0.7793
                ( 40.46%)   0.6361* H  24 s(100.00%)
                                           -1.0000
    23. (1.98961) BD ( 1) C   9 - C  10  
                ( 48.91%)   0.6994* C   9 s( 24.59%)p 3.07( 75.41%)
                                            0.0000  0.4959 -0.7049  0.4198 -0.2844
                ( 51.09%)   0.7147* C  10 s( 25.83%)p 2.87( 74.17%)
                                            0.0001  0.5082  0.7295 -0.3652  0.2760
    24. (1.99032) BD ( 1) C   9 - C  11  
                ( 49.22%)   0.7016* C   9 s( 25.58%)p 2.91( 74.42%)
                                            0.0000  0.5058  0.0633  0.0887  0.8557
                ( 50.78%)   0.7126* C  11 s( 25.94%)p 2.85( 74.06%)
                                            0.0001  0.5093 -0.0120 -0.0491 -0.8591
    25. (1.98357) BD ( 1) C   9 - H  25  
                ( 50.97%)   0.7139* C   9 s( 24.14%)p 3.14( 75.86%)
                                            0.0000  0.4913 -0.0779 -0.8448 -0.1971
                ( 49.03%)   0.7002* H  25 s(100.00%)
                                            1.0000
    26. (1.99539) BD ( 1) C  10 - H  26  
                ( 52.04%)   0.7214* C  10 s( 25.00%)p 3.00( 75.00%)
                                            0.0000  0.5000 -0.0148  0.8362  0.2249
                ( 47.96%)   0.6926* H  26 s(100.00%)
                                            1.0000
    27. (1.99485) BD ( 1) C  10 - H  27  
                ( 51.56%)   0.7181* C  10 s( 24.67%)p 3.05( 75.33%)
                                            0.0000  0.4966 -0.0520 -0.0655 -0.8639
                ( 48.44%)   0.6960* H  27 s(100.00%)
                                            1.0000
    28. (1.99482) BD ( 1) C  10 - H  28  
                ( 51.80%)   0.7197* C  10 s( 24.51%)p 3.08( 75.49%)
                                            0.0000  0.4951 -0.6819 -0.4038  0.3562
                ( 48.20%)   0.6943* H  28 s(100.00%)
                                            1.0000
    29. (1.99472) BD ( 1) C  11 - H  29  
                ( 52.40%)   0.7239* C  11 s( 24.96%)p 3.01( 75.04%)
                                            0.0000  0.4996  0.0150  0.8297  0.2486
                ( 47.60%)   0.6899* H  29 s(100.00%)
                                            1.0000
    30. (1.99357) BD ( 1) C  11 - H  30  
                ( 51.79%)   0.7196* C  11 s( 24.90%)p 3.02( 75.10%)
                                            0.0000  0.4990  0.7005 -0.4058  0.3092
                ( 48.21%)   0.6943* H  30 s(100.00%)
                                            1.0000
    31. (1.99395) BD ( 1) C  11 - H  31  
                ( 51.78%)   0.7196* C  11 s( 24.20%)p 3.13( 75.80%)
                                            0.0000  0.4919 -0.7134 -0.3802  0.3233
                ( 48.22%)   0.6944* H  31 s(100.00%)
                                            1.0000
    32. (1.99997) CR ( 1) C   1           s(100.00%)
                                            1.0000  0.0000  0.0001  0.0000  0.0000
    33. (1.99997) CR ( 1) C   2           s(100.00%)
                                            1.0000  0.0000  0.0001  0.0000  0.0000
    34. (1.99989) CR ( 1) C   3           s(100.00%)
                                            1.0000  0.0000  0.0000  0.0001  0.0000
    35. (1.99996) CR ( 1) C   4           s(100.00%)
                                            1.0000  0.0000  0.0000 -0.0001  0.0000
    36. (1.99995) CR ( 1) C   5           s(100.00%)
                                            1.0000  0.0000  0.0000  0.0000 -0.0001
    37. (1.99996) CR ( 1) C   6           s(100.00%)
                                            1.0000  0.0000  0.0000 -0.0001  0.0000
    38. (1.99995) CR ( 1) C   7           s(100.00%)
                                            1.0000 -0.0001  0.0000  0.0001  0.0000
    39. (1.99999) CR ( 1) O   8           s(100.00%)
                                            1.0000  0.0000  0.0000  0.0000  0.0000
    40. (1.99996) CR ( 1) C   9           s(100.00%)
                                            1.0000  0.0000 -0.0001  0.0000  0.0000
    41. (1.99997) CR ( 1) C  10           s(100.00%)
                                            1.0000  0.0000 -0.0001  0.0000  0.0000
    42. (1.99997) CR ( 1) C  11           s(100.00%)
                                            1.0000  0.0000  0.0000  0.0000  0.0001
    43. (1.99300) LP ( 1) O   8           s( 66.58%)p 0.50( 33.42%)
                                            0.0000  0.8159 -0.1103  0.2071  0.5284
    44. (1.97287) LP ( 2) O   8           s(  0.25%)p99.99( 99.75%)
                                            0.0000  0.0502  0.6506  0.7234 -0.2253
    45. (0.01130) BD*( 1) C   1 - C   2  
                ( 49.03%)   0.7002* C   1 s( 25.82%)p 2.87( 74.18%)
                                           -0.0001 -0.5082  0.6110  0.2444 -0.5556
                ( 50.97%)  -0.7139* C   2 s( 24.98%)p 3.00( 75.02%)
                                            0.0000 -0.4998 -0.5807 -0.2476  0.5930
    46. (0.00495) BD*( 1) C   1 - H  12  
                ( 48.14%)   0.6938* C   1 s( 24.64%)p 3.06( 75.36%)
                                            0.0000 -0.4964 -0.3682 -0.7365 -0.2748
                ( 51.86%)  -0.7202* H  12 s(100.00%)
                                           -1.0000
    47. (0.00498) BD*( 1) C   1 - H  13  
                ( 48.18%)   0.6941* C   1 s( 24.62%)p 3.06( 75.38%)
                                            0.0000 -0.4962 -0.6080  0.6172  0.0567
                ( 51.82%)  -0.7199* H  13 s(100.00%)
                                           -1.0000
    48. (0.00678) BD*( 1) C   1 - H  14  
                ( 48.21%)   0.6943* C   1 s( 24.92%)p 3.01( 75.08%)
                                            0.0000 -0.4992  0.3485 -0.1298  0.7826
                ( 51.79%)  -0.7196* H  14 s(100.00%)
                                           -1.0000
    49. (0.01642) BD*( 1) C   2 - C   6  
                ( 50.36%)   0.7096* C   2 s( 25.21%)p 2.97( 74.79%)
                                            0.0000  0.5020 -0.3674 -0.7430 -0.2469
                ( 49.64%)  -0.7046* C   6 s( 25.49%)p 2.92( 74.51%)
                                            0.0001  0.5048  0.3510  0.7618  0.2040
    50. (0.01489) BD*( 1) C   2 - C   7  
                ( 50.57%)   0.7111* C   2 s( 25.21%)p 2.97( 74.79%)
                                            0.0000  0.5021 -0.6062  0.6109  0.0846
                ( 49.43%)  -0.7031* C   7 s( 25.78%)p 2.88( 74.22%)
                                            0.0001  0.5077  0.5904 -0.6121 -0.1378
    51. (0.01015) BD*( 1) C   2 - H  15  
                ( 48.79%)   0.6985* C   2 s( 24.61%)p 3.06( 75.39%)
                                            0.0000 -0.4961 -0.4003  0.1159 -0.7617
                ( 51.21%)  -0.7156* H  15 s(100.00%)
                                           -1.0000
    52. (0.03541) BD*( 1) C   3 - C   5  
                ( 50.22%)   0.7087* C   3 s( 26.10%)p 2.83( 73.90%)
                                            0.0001  0.5109 -0.3754 -0.7470 -0.2002
                ( 49.78%)  -0.7055* C   5 s( 25.78%)p 2.88( 74.22%)
                                            0.0000  0.5078  0.3421  0.7278  0.3090
    53. (0.02317) BD*( 1) C   3 - C   7  
                ( 49.94%)   0.7067* C   3 s( 26.58%)p 2.76( 73.42%)
                                            0.0000 -0.5155 -0.5115  0.0872 -0.6819
                ( 50.06%)  -0.7075* C   7 s( 25.36%)p 2.94( 74.64%)
                                           -0.0001 -0.5035  0.5410 -0.0471  0.6720
    54. (0.02149) BD*( 1) C   3 - O   8  
                ( 58.91%)   0.7675* C   3 s( 22.62%)p 3.42( 77.38%)
                                            0.0000  0.4756 -0.6256  0.5900  0.1852
                ( 41.09%)  -0.6410* O   8 s( 16.51%)p 5.06( 83.49%)
                                            0.0000  0.4064  0.5979 -0.6439 -0.2504
    55. (0.02167) BD*( 1) C   3 - H  16  
                ( 49.56%)   0.7040* C   3 s( 24.71%)p 3.05( 75.29%)
                                            0.0000 -0.4971 -0.4539 -0.2937  0.6787
                ( 50.44%)  -0.7102* H  16 s(100.00%)
                                           -1.0000
    56. (0.01624) BD*( 1) C   4 - C   5  
                ( 49.62%)   0.7044* C   4 s( 25.52%)p 2.92( 74.48%)
                                           -0.0001 -0.5052  0.5994 -0.6079 -0.1265
                ( 50.38%)  -0.7098* C   5 s( 24.98%)p 3.00( 75.02%)
                                            0.0000 -0.4998 -0.6049  0.6190  0.0332
    57. (0.01280) BD*( 1) C   4 - C   6  
                ( 50.01%)   0.7071* C   4 s( 25.53%)p 2.92( 74.47%)
                                            0.0000  0.5052  0.5227 -0.0470  0.6850
                ( 49.99%)  -0.7071* C   6 s( 25.45%)p 2.93( 74.55%)
                                            0.0000  0.5044 -0.5411  0.0934 -0.6664
    58. (0.00903) BD*( 1) C   4 - H  17  
                ( 48.74%)   0.6981* C   4 s( 23.99%)p 3.17( 76.01%)
                                            0.0000 -0.4898 -0.4698 -0.2029  0.7058
                ( 51.26%)  -0.7160* H  17 s(100.00%)
                                           -1.0000
    59. (0.00922) BD*( 1) C   4 - H  18  
                ( 48.50%)   0.6964* C   4 s( 24.96%)p 3.01( 75.04%)
                                            0.0000 -0.4996  0.3832  0.7662  0.1286
                ( 51.50%)  -0.7177* H  18 s(100.00%)
                                           -1.0000
    60. (0.02359) BD*( 1) C   5 - C   9  
                ( 49.72%)   0.7051* C   5 s( 25.88%)p 2.86( 74.12%)
                                           -0.0001 -0.5087  0.6559  0.2568 -0.4950
                ( 50.28%)  -0.7091* C   9 s( 25.69%)p 2.89( 74.31%)
                                           -0.0001 -0.5068 -0.7021 -0.3197  0.3846
    61. (0.01044) BD*( 1) C   5 - H  19  
                ( 49.35%)   0.7025* C   5 s( 23.36%)p 3.28( 76.64%)
                                            0.0000 -0.4833  0.2946 -0.1458  0.8114
                ( 50.65%)  -0.7117* H  19 s(100.00%)
                                           -1.0000
    62. (0.00872) BD*( 1) C   6 - H  20  
                ( 48.52%)   0.6966* C   6 s( 24.65%)p 3.06( 75.35%)
                                            0.0000 -0.4965 -0.6273  0.5612  0.2121
                ( 51.48%)  -0.7175* H  20 s(100.00%)
                                           -1.0000
    63. (0.01002) BD*( 1) C   6 - H  21  
                ( 48.58%)   0.6970* C   6 s( 24.41%)p 3.10( 75.59%)
                                            0.0000 -0.4941  0.4366  0.3098 -0.6851
                ( 51.42%)  -0.7171* H  21 s(100.00%)
                                           -1.0000
    64. (0.00892) BD*( 1) C   7 - H  22  
                ( 48.23%)   0.6945* C   7 s( 24.53%)p 3.08( 75.47%)
                                            0.0000 -0.4953 -0.3940 -0.7667 -0.1076
                ( 51.77%)  -0.7195* H  22 s(100.00%)
                                           -1.0000
    65. (0.01042) BD*( 1) C   7 - H  23  
                ( 48.06%)   0.6933* C   7 s( 24.34%)p 3.11( 75.66%)
                                            0.0000 -0.4933  0.4511  0.1879 -0.7196
                ( 51.94%)  -0.7207* H  23 s(100.00%)
                                           -1.0000
    66. (0.00732) BD*( 1) O   8 - H  24  
                ( 40.46%)   0.6361* O   8 s( 16.66%)p 5.00( 83.34%)
                                            0.0000  0.4081 -0.4550  0.1381 -0.7793
                ( 59.54%)  -0.7716* H  24 s(100.00%)
                                            1.0000
    67. (0.01017) BD*( 1) C   9 - C  10  
                ( 51.09%)   0.7147* C   9 s( 24.59%)p 3.07( 75.41%)
                                            0.0000  0.4959 -0.7049  0.4198 -0.2844
                ( 48.91%)  -0.6994* C  10 s( 25.83%)p 2.87( 74.17%)
                                            0.0001  0.5082  0.7295 -0.3652  0.2760
    68. (0.01042) BD*( 1) C   9 - C  11  
                ( 50.78%)   0.7126* C   9 s( 25.58%)p 2.91( 74.42%)
                                            0.0000  0.5058  0.0633  0.0887  0.8557
                ( 49.22%)  -0.7016* C  11 s( 25.94%)p 2.85( 74.06%)
                                            0.0001  0.5093 -0.0120 -0.0491 -0.8591
    69. (0.01099) BD*( 1) C   9 - H  25  
                ( 49.03%)   0.7002* C   9 s( 24.14%)p 3.14( 75.86%)
                                            0.0000 -0.4913  0.0779  0.8448  0.1971
                ( 50.97%)  -0.7139* H  25 s(100.00%)
                                           -1.0000
    70. (0.00726) BD*( 1) C  10 - H  26  
                ( 47.96%)   0.6926* C  10 s( 25.00%)p 3.00( 75.00%)
                                            0.0000 -0.5000  0.0148 -0.8362 -0.2249
                ( 52.04%)  -0.7214* H  26 s(100.00%)
                                           -1.0000
    71. (0.00556) BD*( 1) C  10 - H  27  
                ( 48.44%)   0.6960* C  10 s( 24.67%)p 3.05( 75.33%)
                                            0.0000 -0.4966  0.0520  0.0655  0.8639
                ( 51.56%)  -0.7181* H  27 s(100.00%)
                                           -1.0000
    72. (0.00491) BD*( 1) C  10 - H  28  
                ( 48.20%)   0.6943* C  10 s( 24.51%)p 3.08( 75.49%)
                                            0.0000 -0.4951  0.6819  0.4038 -0.3562
[...]
   10      26.6048        9.7374      16.8674        16.1008      10.5040
   11      -0.3436       -0.6215       0.2779        -1.6096       1.2659
   16      -0.1388       -0.1828       0.0440        -1.0093       0.8705
   22      22.5696       11.8653      10.7043         8.1387      14.4308
   26      -0.3493       -1.2549       0.9056        -0.8514       0.5021
   39     271.1848       -0.0058     271.1906        -0.0035     271.1883
   43      34.9184        0.4344      34.4839        -2.4998      37.4182
   44       5.4144      -32.8907      38.3051       -34.4752      39.8896
 Sum      359.8602      -12.9185     372.7787       -16.2092     376.0694

 Contributions to Isotropic shielding for atom    9 (   210.3199 ppm):
                         Standard Origin              Atomic Origin
 NLMO      Total    Paramagnetic  Diamagnetic   Paramagnetic  Diamagnetic
   10      -0.0278       -0.3844       0.3565        -1.1776       1.1498
   15      -0.5371       -1.0009       0.4637        -1.4552       0.9180
   16       4.2151       -9.3558      13.5709        -3.5159       7.7310
   23      -2.3761       -4.7179       2.3418        -9.8064       7.4303
   24      -0.1540       -7.4292       7.2752        -7.8005       7.6465
   25       4.2667       -2.3178       6.5845        -6.5654      10.8320
   26       1.0170       -0.3735       1.3905        -0.0050       1.0221
   27       0.7654       -0.4964       1.2617        -0.2417       1.0070
   28       0.6292       -0.4022       1.0314        -0.3902       1.0194
   29       0.7545       -0.3075       1.0620        -0.2898       1.0443
   30       0.5611       -0.5173       1.0784        -0.4440       1.0051
   31       0.5762       -0.1248       0.7010        -0.4409       1.0171
   40     199.9213       -0.0022     199.9235         0.0024     199.9189
 Sum      209.6113      -27.4299     237.0411       -32.1301     241.7414

 Contributions to Isotropic shielding for atom   10 (   218.8542 ppm):
                         Standard Origin              Atomic Origin
 NLMO      Total    Paramagnetic  Diamagnetic   Paramagnetic  Diamagnetic
   17      -0.4002       -0.3337      -0.0665        -1.3869       0.9867
   23       4.4279      -11.9474      16.3754        -3.6290       8.0569
   24      -0.4730        0.0381      -0.5111        -1.2235       0.7505
   25       0.2638        0.1899       0.0739        -0.7972       1.0610
   26       5.8684       -4.9347      10.8032        -5.3551      11.2235
   27       4.6037       -3.2961       7.8998        -6.4120      11.0157
   28       4.2738        1.1343       3.1395        -6.8196      11.0934
   41     200.0770       -0.0040     200.0810         0.0023     200.0747
 Sum      218.6414      -19.1536     237.7950       -25.6210     244.2624

 Contributions to Isotropic shielding for atom   11 (   222.5514 ppm):
                         Standard Origin              Atomic Origin
 NLMO      Total    Paramagnetic  Diamagnetic   Paramagnetic  Diamagnetic
   10       0.0595       -0.3129       0.3725        -1.0171       1.0766
   23      -0.2895       -0.0266      -0.2629        -1.0038       0.7143
   24       3.3592       -8.5906      11.9497        -4.4991       7.8583
   25       0.2833       -0.1601       0.4435        -0.7208       1.0042
   29       6.5953       -4.8344      11.4297        -4.7301      11.3253
   30       6.6784       -5.6273      12.3057        -4.4126      11.0911
   31       5.6568        2.2956       3.3612        -5.3867      11.0435
   42     200.0784       -0.0018     200.0803         0.0012     200.0772
 Sum      222.4215      -17.2581     239.6795       -21.7691     244.1905

 Contributions to Isotropic shielding for atom   12 (    32.5500 ppm):
                         Standard Origin              Atomic Origin
 NLMO      Total    Paramagnetic  Diamagnetic   Paramagnetic  Diamagnetic
    1       1.4251       -0.0618       1.4869         0.3973       1.0278
    2      26.3280        0.1316      26.1964         0.4251      25.9029
    3       1.8980        2.4262      -0.5282         0.0563       1.8418
    4       2.0614        0.9002       1.1611         0.2099       1.8515
 Sum       31.7126        3.3963      28.3162         1.0886      30.6240

 Contributions to Isotropic shielding for atom   13 (    32.6176 ppm):
                         Standard Origin              Atomic Origin
 NLMO      Total    Paramagnetic  Diamagnetic   Paramagnetic  Diamagnetic
    1       1.3329        0.1967       1.1361         0.3030       1.0299
    2       1.9222        2.3707      -0.4486         0.0796       1.8426
    3      26.3674        0.0890      26.2784         0.4414      25.9259
    4       2.0431        1.1136       0.9295         0.1915       1.8516
 Sum       31.6655        3.7700      27.8955         1.0155      30.6500

 Contributions to Isotropic shielding for atom   14 (    32.6056 ppm):
                         Standard Origin              Atomic Origin
 NLMO      Total    Paramagnetic  Diamagnetic   Paramagnetic  Diamagnetic
    1       1.6194       -1.3670       2.9865         0.7212       0.8983
    2       1.9648        1.1462       0.8185         0.1256       1.8391
    3       1.9361        1.4312       0.5050         0.0989       1.8372
    4      26.3394        0.3239      26.0155         0.3738      25.9656
 Sum       31.8597        1.5343      30.3255         1.3196      30.5402

 Contributions to Isotropic shielding for atom   15 (    32.3409 ppm):
                         Standard Origin              Atomic Origin
 NLMO      Total    Paramagnetic  Diamagnetic   Paramagnetic  Diamagnetic
    1       0.7538        2.2961      -1.5423        -0.2576       1.0114
    5       1.2617        1.0315       0.2302         0.2750       0.9867
    6       1.3792        0.7026       0.6766         0.4007       0.9786
    7      26.4633       -0.1979      26.6612         0.4655      25.9978
   19       0.1324       -0.0778       0.2102        -0.8991       1.0315
   21       0.1095        0.0801       0.0294        -0.9362       1.0457
 Sum       30.0999        3.8346      26.2653        -0.9518      31.0517

 Contributions to Isotropic shielding for atom   16 (    31.9318 ppm):
                         Standard Origin              Atomic Origin
 NLMO      Total    Paramagnetic  Diamagnetic   Paramagnetic  Diamagnetic
    4      -0.3136       -1.2169       0.9033        -0.8646       0.5510
    8       1.0486        0.2363       0.8123        -0.0050       1.0535
    9       0.7636        0.4649       0.2987        -0.4364       1.2000
   10       0.5453        1.2268      -0.6815        -1.0549       1.6002
   11      26.8328        0.2325      26.6003         0.7257      26.1071
   17       0.0336       -0.3003       0.3339        -0.9680       1.0016
   22       0.2340       -0.7981       1.0320        -0.7811       1.0151
 Sum       29.1442       -0.1548      29.2990        -3.3843      32.5285

 Contributions to Isotropic shielding for atom   17 (    32.4988 ppm):
                         Standard Origin              Atomic Origin
 NLMO      Total    Paramagnetic  Diamagnetic   Paramagnetic  Diamagnetic
    4      -0.3142       -1.0504       0.7362        -0.8589       0.5446
   12       1.3640        0.2451       1.1189         0.3130       1.0510
   13       1.0395        0.9518       0.0877         0.0214       1.0181
   14      26.5448        0.0358      26.5090         0.4394      26.1054
   15       1.9154        1.6400       0.2754         0.0970       1.8184
   17      -0.0037       -0.1479       0.1441        -1.0357       1.0320
 Sum       30.5457        1.6744      28.8713        -1.0238      31.5695

 Contributions to Isotropic shielding for atom   18 (    32.5568 ppm):
                         Standard Origin              Atomic Origin
 NLMO      Total    Paramagnetic  Diamagnetic   Paramagnetic  Diamagnetic
   12       1.3636        0.4460       0.9176         0.4546       0.9089
   13       1.0660        1.1435      -0.0775         0.0313       1.0347
   14       2.0347        1.6789       0.3558         0.2763       1.7584
   15      26.4257        0.0614      26.3644         0.4933      25.9325
   16      -0.0757        0.0585      -0.1342        -1.1936       1.1179
   25      -0.2212       -1.0622       0.8410        -0.8838       0.6626
 Sum       30.5931        2.3261      28.2670        -0.8219      31.4149

 Contributions to Isotropic shielding for atom   19 (    32.7971 ppm):
                         Standard Origin              Atomic Origin
 NLMO      Total    Paramagnetic  Diamagnetic   Paramagnetic  Diamagnetic
    8       1.2763        0.9903       0.2860         0.1523       1.1239
   12       1.1595        1.2315      -0.0720        -0.0050       1.1645
   14       0.0642       -0.5283       0.5926        -1.0432       1.1074
   16       1.0829        1.4035      -0.3206        -0.1940       1.2770
   17      26.6944       -0.2001      26.8945         0.4449      26.2495
   23      -0.1383       -0.5852       0.4469        -1.2663       1.1279
   27      -0.1419       -1.6897       1.5478        -1.0594       0.9174
 Sum       29.9971        0.6221      29.3751        -2.9706      32.9677

 Contributions to Isotropic shielding for atom   20 (    32.6355 ppm):
                         Standard Origin              Atomic Origin
 NLMO      Total    Paramagnetic  Diamagnetic   Paramagnetic  Diamagnetic
    1      -0.1110        0.0393      -0.1502        -1.1061       0.9951
    3      -0.0945       -1.2368       1.1423        -0.9931       0.8986
    5       1.0499        1.3764      -0.3265         0.1229       0.9270
   13       1.1756        1.0401       0.1354         0.1569       1.0186
   14       0.1795        0.1251       0.0544        -0.8441       1.0236
   18      26.4557       -0.0655      26.5212         0.4805      25.9752
   19       2.1166        1.5454       0.5713         0.3479       1.7687
 Sum       30.7718        2.8239      27.9478        -1.8351      32.6069

 Contributions to Isotropic shielding for atom   21 (    32.5418 ppm):
                         Standard Origin              Atomic Origin
 NLMO      Total    Paramagnetic  Diamagnetic   Paramagnetic  Diamagnetic
    5       1.3404        0.3998       0.9406         0.3589       0.9815
   13       1.3797        0.0180       1.3617         0.4058       0.9740
   18       1.9453        1.8672       0.0781         0.1341       1.8112
   19      26.4681        0.1804      26.2877         0.4008      26.0673
 Sum       31.1336        2.4655      28.6681         1.2996      29.8340

 Contributions to Isotropic shielding for atom   22 (    32.1733 ppm):
                         Standard Origin              Atomic Origin
 NLMO      Total    Paramagnetic  Diamagnetic   Paramagnetic  Diamagnetic
    1      -0.0607       -0.2340       0.1734        -1.0546       0.9939
    2      -0.1029       -1.3396       1.2367        -0.9993       0.8964
    6       1.0435        1.4241      -0.3806         0.0983       0.9452
    9       1.2231        0.8495       0.3735         0.2730       0.9501
   10       0.0575       -0.0225       0.0800        -1.4595       1.5170
   20      26.2449       -0.0034      26.2483         0.4414      25.8036
   21       2.1054        1.3246       0.7808         0.2267       1.8787
 Sum       30.5109        1.9988      28.5121        -2.4740      32.9849

 Contributions to Isotropic shielding for atom   23 (    32.1734 ppm):
                         Standard Origin              Atomic Origin
 NLMO      Total    Paramagnetic  Diamagnetic   Paramagnetic  Diamagnetic
    6       1.2080        0.6212       0.5867         0.1923       1.0157
    9       1.3922        0.1340       1.2582         0.5212       0.8710
   10       0.0947       -0.4006       0.4952        -1.4590       1.5536
   20       1.9953        1.4834       0.5119         0.0895       1.9058
   21      26.1845        0.1607      26.0238         0.3960      25.7886
   29      -0.2727       -1.0044       0.7317        -1.1100       0.8372
   30      -0.2024       -0.7749       0.5725        -1.0823       0.8799
 Sum       30.3996        0.2195      30.1800        -2.4523      32.8519

 Contributions to Isotropic shielding for atom   24 (    35.0040 ppm):
                         Standard Origin              Atomic Origin
 NLMO      Total    Paramagnetic  Diamagnetic   Paramagnetic  Diamagnetic
   10       1.5575        1.8957      -0.3382         0.8245       0.7331
   11       0.1050        0.2238      -0.1189        -0.9367       1.0417
   22      22.9762       -0.5088      23.4850        -0.1855      23.1617
   26      -0.3613       -1.2362       0.8749        -0.7896       0.4283
   43       4.0440        1.0860       2.9580         2.1196       1.9244
   44       5.6509        2.6026       3.0483         2.4757       3.1752
 Sum       33.9723        4.0632      29.9092         3.5080      30.4644

 Contributions to Isotropic shielding for atom   25 (    32.5555 ppm):
                         Standard Origin              Atomic Origin
 NLMO      Total    Paramagnetic  Diamagnetic   Paramagnetic  Diamagnetic
   12      -0.2281        0.1267      -0.3547        -1.3246       1.0965
   15      -0.2408       -0.8931       0.6523        -1.0129       0.7720
   16       1.6221        0.2804       1.3417         0.5729       1.0492
   23       0.8096        2.1563      -1.3467        -0.2520       1.0616
   24       1.0487        1.2928      -0.2441        -0.0332       1.0818
   25      26.5821       -0.1340      26.7161         0.4926      26.0895
   28       0.2129       -0.6889       0.9018        -0.7890       1.0019
 Sum       29.8066        2.1402      27.6664        -2.3461      32.1527

 Contributions to Isotropic shielding for atom   26 (    32.4234 ppm):
                         Standard Origin              Atomic Origin
 NLMO      Total    Paramagnetic  Diamagnetic   Paramagnetic  Diamagnetic
   22      -0.1914       -0.3237       0.1323        -1.2078       1.0164
   23       1.5967       -1.1266       2.7233         0.6787       0.9179
   24      -0.1350        0.2930      -0.4280        -1.0499       0.9149
   26      26.2581        0.3006      25.9574         0.4252      25.8329
   27       1.9255        1.0092       0.9163         0.1250       1.8005
   28       1.8747        1.8659       0.0088         0.0181       1.8566
 Sum       31.3285        2.0185      29.3100        -1.0107      32.3392

 Contributions to Isotropic shielding for atom   27 (    32.7024 ppm):
                         Standard Origin              Atomic Origin
 NLMO      Total    Paramagnetic  Diamagnetic   Paramagnetic  Diamagnetic
   16      -0.0652        0.2309      -0.2961        -1.0491       0.9838
   23       1.5460       -0.6574       2.2034         0.5612       0.9848
   26       2.0122        0.9357       1.0765         0.1688       1.8434
   27      26.5086        0.2365      26.2721         0.4513      26.0574
   28       1.8709        2.2365      -0.3655         0.0201       1.8508
 Sum       31.8726        2.9822      28.8903         0.1523      31.7203

 Contributions to Isotropic shielding for atom   28 (    32.4125 ppm):
                         Standard Origin              Atomic Origin
 NLMO      Total    Paramagnetic  Diamagnetic   Paramagnetic  Diamagnetic
   23       1.3302        0.0980       1.2322         0.2998       1.0304
   24      -0.1441        0.6773      -0.8214        -1.1225       0.9784
   26       1.9509        1.5554       0.3954         0.0775       1.8734
   27       1.8433        1.9817      -0.1385        -0.0011       1.8444
   28      26.4023        0.0593      26.3430         0.4735      25.9288
 Sum       31.3825        4.3717      27.0107        -0.2728      31.6553

 Contributions to Isotropic shielding for atom   29 (    32.2292 ppm):
                         Standard Origin              Atomic Origin
 NLMO      Total    Paramagnetic  Diamagnetic   Paramagnetic  Diamagnetic
   10       0.1006       -0.4280       0.5286        -1.0710       1.1716
   23      -0.1093       -0.0099      -0.0994        -1.0184       0.9091
   24       1.3765       -0.2999       1.6764         0.4594       0.9171
   29      26.0455        0.2740      25.7715         0.4002      25.6453
   30       2.1430        0.3200       1.8229         0.3623       1.7806
   31       1.9724        1.8536       0.1187         0.1170       1.8553
   43      -0.4249        0.2100      -0.6349         0.6498      -1.0747
 Sum       31.1037        1.9198      29.1839        -0.1007      31.2044

 Contributions to Isotropic shielding for atom   30 (    32.5959 ppm):
                         Standard Origin              Atomic Origin
 NLMO      Total    Paramagnetic  Diamagnetic   Paramagnetic  Diamagnetic
   24       1.4626       -0.4912       1.9538         0.4690       0.9936
   29       2.1757        0.3744       1.8013         0.3443       1.8314
   30      26.3974        0.2943      26.1031         0.3791      26.0183
   31       1.9904        1.6867       0.3037         0.1131       1.8773
 Sum       32.0261        1.8642      30.1618         1.3054      30.7207

 Contributions to Isotropic shielding for atom   31 (    32.5101 ppm):
                         Standard Origin              Atomic Origin
 NLMO      Total    Paramagnetic  Diamagnetic   Paramagnetic  Diamagnetic
   23      -0.1043        0.3879      -0.4923        -1.1123       1.0080
   24       1.1395        0.9545       0.1850         0.1367       1.0028
   28      -0.1083       -1.1159       1.0076        -0.9967       0.8884
   29       2.0333        1.5326       0.5007         0.1375       1.8959
   30       2.0359        1.3329       0.7030         0.1636       1.8724
   31      26.3778       -0.0046      26.3824         0.4164      25.9614
 Sum       31.3740        3.0875      28.2865        -1.2549      32.6289
 
 1\1\GINC-COMPUTE-10-6\SP\RHF\STO-3G\C10H20O1\YTSAI.IQUIR\03-Aug-2021\0
 \\# rhf/STO-3G nmr pop=nbo\\comment\\0,1\C,0,1.021736449,1.69063886,-2
 .549525145\C,0,0.018179066,0.623620537,-2.101297853\C,0,1.236146738,-0
 .267908838,-0.032246774\C,0,-0.540882249,1.519066835,0.225900824\C,0,0
 .184723443,0.345251416,0.919825088\C,0,-1.0549627,1.210738837,-1.17781
 1809\C,0,0.719654744,-0.567730363,-1.441538965\O,0,1.815932406,-1.4502
 84475,0.502558759\C,0,-0.806315821,-0.617579097,1.654562255\C,0,-0.172
 956864,-1.2316974,2.913592391\C,0,-1.417710952,-1.73882519,0.816671799
 \H,0,1.750052593,1.264233161,-3.247673741\H,0,0.508085137,2.508369493,
 -3.066404641\H,0,1.575894022,2.121817355,-1.71086602\H,0,-0.481030475,
 0.260233399,-3.009155461\H,0,2.057774543,0.453023168,-0.131512217\H,0,
 0.159524547,2.361999994,0.159506532\H,0,-1.369968882,1.879404306,0.846
 469576\H,0,0.761607543,0.814428075,1.731416762\H,0,-1.465193582,2.1273
 71875,-1.619541601\H,0,-1.896035318,0.513388703,-1.112698404\H,0,1.556
 073177,-0.907172029,-2.066928932\H,0,0.035929534,-1.42273683,-1.419348
 882\H,0,2.272226547,-1.202948001,1.324844497\H,0,-1.642028481,-0.00549
 5077,2.020446984\H,0,0.6141911,-1.950892606,2.672907074\H,0,0.25363897
 2,-0.456764305,3.558885337\H,0,-0.93078856,-1.762497646,3.501041552\H,
 0,-0.666523503,-2.467325568,0.498035069\H,0,-1.933946215,-1.356909655,
 -0.065156737\H,0,-2.163026961,-2.286818935,1.405042683\\Version=EM64L-
 G09RevC.01\State=1-A\HF=-459.6090638\RMSD=9.309e-09\Dipole=-0.0219098,
 0.4912908,0.1905065\Quadrupole=0.7691934,-2.0665836,1.2973902,1.416377
 5,1.2818135,-0.0101632\PG=C01 [X(C10H20O1)]\\@


 TWO ROADS DIVERGED IN A WOOD, AND I--
 I TOOK THE ONE LESS TRAVELED BY,
 AND THAT HAS MADE ALL THE DIFFERENCE.

                       -- ROBERT FROST
 Job cpu time:  0 days  0 hours  0 minutes 30.2 seconds.
 File lengths (MBytes):  RWF=      5 Int=      0 D2E=      0 Chk=      1 Scr=      1
 Normal termination of Gaussian 09 at Tue Aug  3 16:37:58 2021.
