 Entering Gaussian System, Link 0=g09
 Input=/home/ytsai.iquir/menthol/04_menthol_M0037_MMFF_NMR_rhf_STO-3G_nbo.gjc
 Output=/home/ytsai.iquir/menthol/04_menthol_M0037_MMFF_NMR_rhf_STO-3G_nbo.log
 Initial command:
 /share/apps/Gaussian09/EM64T.SSE4.2-enabled/g09/l1.exe /tmp/Gau-2600.inp -scrdir=/tmp/
 Entering Link 1 = /share/apps/Gaussian09/EM64T.SSE4.2-enabled/g09/l1.exe PID=      2601.
  
 Copyright (c) 1988,1990,1992,1993,1995,1998,2003,2009,2011,
            Gaussian, Inc.  All Rights Reserved.
  
 This is part of the Gaussian(R) 09 program.  It is based on
 the Gaussian(R) 03 system (copyright 2003, Gaussian, Inc.),
 the Gaussian(R) 98 system (copyright 1998, Gaussian, Inc.),
 the Gaussian(R) 94 system (copyright 1995, Gaussian, Inc.),
 the Gaussian 92(TM) system (copyright 1992, Gaussian, Inc.),
 the Gaussian 90(TM) system (copyright 1990, Gaussian, Inc.),
 the Gaussian 88(TM) system (copyright 1988, Gaussian, Inc.),
 the Gaussian 86(TM) system (copyright 1986, Carnegie Mellon
 University), and the Gaussian 82(TM) system (copyright 1983,
 Carnegie Mellon University). Gaussian is a federally registered
 trademark of Gaussian, Inc.
  
 This software contains proprietary and confidential information,
 including trade secrets, belonging to Gaussian, Inc.
  
 This software is provided under written license and may be
 used, copied, transmitted, or stored only in accord with that
 written license.
  
 The following legend is applicable only to US Government
 contracts under FAR:
  
                    RESTRICTED RIGHTS LEGEND
  
 Use, reproduction and disclosure by the US Government is
 subject to restrictions as set forth in subparagraphs (a)
 and (c) of the Commercial Computer Software - Restricted
 Rights clause in FAR 52.227-19.
  
 Gaussian, Inc.
 340 Quinnipiac St., Bldg. 40, Wallingford CT 06492
  
  
 ---------------------------------------------------------------
 Warning -- This program may not be used in any manner that
 competes with the business of Gaussian, Inc. or will provide
 assistance to any competitor of Gaussian, Inc.  The licensee
 of this program is prohibited from giving any competitor of
 Gaussian, Inc. access to this program.  By using this program,
 the user acknowledges that Gaussian, Inc. is engaged in the
 business of creating and licensing software in the field of
 computational chemistry and represents and warrants to the
 licensee that it is not a competitor of Gaussian, Inc. and that
 it will not use this program in any manner prohibited above.
 ---------------------------------------------------------------
  

 Cite this work as:
 Gaussian 09, Revision C.01,
 M. J. Frisch, G. W. Trucks, H. B. Schlegel, G. E. Scuseria, 
 M. A. Robb, J. R. Cheeseman, G. Scalmani, V. Barone, B. Mennucci, 
 G. A. Petersson, H. Nakatsuji, M. Caricato, X. Li, H. P. Hratchian, 
 A. F. Izmaylov, J. Bloino, G. Zheng, J. L. Sonnenberg, M. Hada, 
 M. Ehara, K. Toyota, R. Fukuda, J. Hasegawa, M. Ishida, T. Nakajima, 
 Y. Honda, O. Kitao, H. Nakai, T. Vreven, J. A. Montgomery, Jr., 
 J. E. Peralta, F. Ogliaro, M. Bearpark, J. J. Heyd, E. Brothers, 
 K. N. Kudin, V. N. Staroverov, T. Keith, R. Kobayashi, J. Normand, 
 K. Raghavachari, A. Rendell, J. C. Burant, S. S. Iyengar, J. Tomasi, 
 M. Cossi, N. Rega, J. M. Millam, M. Klene, J. E. Knox, J. B. Cross, 
 V. Bakken, C. Adamo, J. Jaramillo, R. Gomperts, R. E. Stratmann, 
 O. Yazyev, A. J. Austin, R. Cammi, C. Pomelli, J. W. Ochterski, 
 R. L. Martin, K. Morokuma, V. G. Zakrzewski, G. A. Voth, 
 P. Salvador, J. J. Dannenberg, S. Dapprich, A. D. Daniels, 
 O. Farkas, J. B. Foresman, J. V. Ortiz, J. Cioslowski, 
 and D. J. Fox, Gaussian, Inc., Wallingford CT, 2010.
 
 ******************************************
 Gaussian 09:  EM64L-G09RevC.01 23-Sep-2011
                 3-Aug-2021 
 ******************************************
 %nprocshared=4
 Will use up to    4 processors via shared memory.
 ------------------------
 # rhf/STO-3G nmr pop=nbo
 ------------------------
 1/38=1/1;
 2/12=2,17=6,18=5,40=1/2;
 3/6=3,11=1,16=1,25=1,30=1,116=1/1,2,8,3;
 4//1;
 5/5=2,38=5/2;
 8/6=1,10=90,11=11/1;
 10/13=100,45=16/2;
 6/7=2,8=2,9=2,10=2,28=1,64=1/1,7;
 99/9=1/99;
 -------
 comment
 -------
 Charge =  0 Multiplicity = 1
 Symbolic Z-Matrix:
 6                     1.30769   1.48031  -2.47545 
 6                     0.30556   0.39109  -2.08314 
 6                     1.41525  -0.42236   0.07263 
 6                    -0.43708   1.32513   0.17979 
 6                     0.31697   0.22405   0.95259 
 6                    -0.84597   0.95154  -1.24447 
 6                     0.98366  -0.76959  -1.35328 
 8                     1.9475   -1.58317   0.70425 
 6                    -0.57778  -0.77036   1.76136 
 6                    -1.52311  -1.64421   0.94176 
 6                    -1.38618  -0.04665   2.8498 
 1                     1.78981   1.9384   -1.60712 
 1                     2.09478   1.06577  -3.11444 
 1                     0.80885   2.27609  -3.03898 
 1                    -0.11765   0.00018  -3.0178 
 1                     2.24431   0.29393   0.00861 
 1                     0.21804   2.20469   0.12417 
 1                    -1.32091   1.66302   0.72918 
 1                     0.87587   0.75214   1.74185 
 1                    -1.27076   1.8342   -1.73851 
 1                    -1.65191   0.21184  -1.21492 
 1                     1.85795  -1.112    -1.92261 
 1                     0.31214  -1.63416  -1.34228 
 1                     2.66353  -1.92375   0.14143 
 1                     0.09534  -1.44993   2.30077 
 1                    -2.28365  -1.05251   0.42667 
 1                    -0.98565  -2.25087   0.21175 
 1                    -2.05466  -2.34367   1.59778 
 1                    -2.18948   0.56439   2.42739 
 1                    -0.74199   0.59956   3.45497 
 1                    -1.85047  -0.77312   3.52627 
 
                          Input orientation:                          
 ---------------------------------------------------------------------
 Center     Atomic      Atomic             Coordinates (Angstroms)
 Number     Number       Type             X           Y           Z
 ---------------------------------------------------------------------
      1          6           0        1.307687    1.480315   -2.475452
      2          6           0        0.305561    0.391092   -2.083141
      3          6           0        1.415253   -0.422359    0.072628
      4          6           0       -0.437078    1.325126    0.179787
      5          6           0        0.316969    0.224050    0.952587
      6          6           0       -0.845974    0.951544   -1.244470
      7          6           0        0.983664   -0.769593   -1.353277
      8          8           0        1.947503   -1.583171    0.704251
      9          6           0       -0.577779   -0.770359    1.761357
     10          6           0       -1.523109   -1.644211    0.941763
     11          6           0       -1.386177   -0.046647    2.849797
     12          1           0        1.789809    1.938403   -1.607118
     13          1           0        2.094782    1.065772   -3.114440
     14          1           0        0.808846    2.276087   -3.038979
     15          1           0       -0.117654    0.000179   -3.017802
     16          1           0        2.244307    0.293934    0.008606
     17          1           0        0.218037    2.204685    0.124169
     18          1           0       -1.320910    1.663024    0.729176
     19          1           0        0.875867    0.752135    1.741848
     20          1           0       -1.270762    1.834203   -1.738512
     21          1           0       -1.651914    0.211843   -1.214922
     22          1           0        1.857952   -1.111998   -1.922613
     23          1           0        0.312144   -1.634160   -1.342281
     24          1           0        2.663534   -1.923748    0.141432
     25          1           0        0.095342   -1.449927    2.300774
     26          1           0       -2.283651   -1.052508    0.426673
     27          1           0       -0.985651   -2.250865    0.211748
     28          1           0       -2.054659   -2.343673    1.597784
     29          1           0       -2.189484    0.564385    2.427394
     30          1           0       -0.741986    0.599559    3.454968
     31          1           0       -1.850469   -0.773117    3.526267
 ---------------------------------------------------------------------
                    Distance matrix (angstroms):
                    1          2          3          4          5
     1  C    0.000000
     2  C    1.531199   0.000000
     3  C    3.181894   2.557432   0.000000
     4  C    3.180972   2.558276   2.548787   0.000000
     5  C    3.783012   3.040342   1.548677   1.542134   0.000000
     6  C    2.536370   1.530852   2.955588   1.528158   2.590124
     7  C    2.535025   1.529613   1.529721   2.959162   2.597849
     8  O    4.461482   3.789887   1.424684   3.797299   2.446704
     9  C    5.154713   4.112108   2.635354   2.629110   1.563180
    10  C    5.427101   4.078791   3.298831   3.252235   2.622290
    11  C    6.160097   5.233305   3.962555   3.148254   2.563862
    12  H    1.093751   2.196306   2.921478   2.920302   3.414727
    13  H    1.095294   2.172575   3.582414   4.162873   4.517723
    14  H    1.095289   2.172585   4.163104   3.580099   4.515020
    15  H    2.125216   1.097959   3.475499   3.475931   4.000376
    16  H    2.907801   2.853697   1.097499   2.877931   2.147234
    17  H    2.910340   2.858146   2.887446   1.098132   2.149182
    18  H    4.148800   3.488889   3.502351   1.094149   2.191622
    19  H    4.301435   3.884089   2.111083   2.119476   1.101896
    20  H    2.704943   2.164747   3.948034   2.152687   3.515039
    21  H    3.457917   2.148870   3.386371   2.158805   2.928267
    22  H    2.707121   2.166787   2.156981   3.953077   3.525113
    23  H    3.460512   2.156517   2.165012   3.411070   2.952861
    24  H    4.502671   3.983371   1.953742   4.491152   3.282891
    25  H    5.733100   4.759439   2.786162   3.533125   2.160769
    26  H    5.266425   3.884221   3.768863   3.020584   2.944386
    27  H    5.138302   3.730105   3.021114   3.617964   2.893245
    28  H    6.520698   5.157402   4.249452   4.252925   3.554448
    29  H    6.091554   5.157539   4.417320   2.949812   2.928001
    30  H    6.336148   5.640166   4.139833   3.368416   2.743046
    31  H    7.146506   6.121219   4.766088   4.195143   3.509410
                    6          7          8          9         10
     6  C    0.000000
     7  C    2.514304   0.000000
     8  O    4.245681   2.413362   0.000000
     9  C    3.474460   3.484114   2.855729   0.000000
    10  C    3.460645   3.509426   3.479265   1.526106   0.000000
    11  C    4.248673   4.878999   4.251788   1.536869   2.492300
    12  H    2.837738   2.836820   4.215303   4.928437   5.505211
    13  H    3.486816   2.775760   4.649837   5.855541   6.073378
    14  H    2.777248   3.485444   5.495651   5.852076   6.054177
    15  H    2.140152   2.139180   4.541536   4.862695   4.511926
    16  H    3.398895   2.138934   2.023743   3.488413   4.338272
    17  H    2.139078   3.408132   4.204213   3.487779   4.302796
    18  H    2.151056   3.945287   4.606618   2.745723   3.320223
    19  H    3.452911   3.450664   2.771041   2.105103   3.483920
    20  H    1.097091   3.465630   5.291764   4.417358   4.398513
    21  H    1.094335   2.815782   4.456580   3.313114   2.848301
    22  H    3.468327   1.098073   2.670288   4.429575   4.463123
    23  H    2.834902   1.094777   2.620170   3.342257   2.930035
    24  H    4.743908   2.527487   0.972347   3.802706   4.271609
    25  H    4.384277   3.821526   2.448907   1.098123   2.122272
    26  H    2.979237   3.731435   4.273327   2.184259   1.092637
    27  H    3.520725   2.919190   3.048240   2.181638   1.090785
    28  H    4.516390   4.518616   4.170620   2.164081   1.096429
    29  H    3.929057   5.112909   4.969495   2.196074   2.743912
    30  H    4.713748   5.288824   4.423133   2.184481   3.458447
    31  H    5.171402   5.642896   4.800475   2.175926   2.746932
                   11         12         13         14         15
    11  C    0.000000
    12  H    5.821633   0.000000
    13  H    6.994761   1.768194   0.000000
    14  H    6.700068   1.768204   1.767538   0.000000
    15  H    6.003338   3.063520   2.457581   2.457358   0.000000
    16  H    4.622637   2.349769   3.220483   3.908613   3.850234
    17  H    3.882145   2.353450   3.912529   3.218642   3.852858
    18  H    2.724751   3.900087   5.176586   4.371578   4.272320
    19  H    2.642432   3.668528   5.016738   5.018290   4.920040
    20  H    4.960191   3.065162   3.716255   2.492237   2.515926
    21  H    4.081590   3.870437   4.286618   3.693728   2.376790
    22  H    5.868155   3.067430   2.493836   3.718335   2.517815
    23  H    4.793538   3.875157   3.688900   4.291333   2.379740
    24  H    5.221006   4.328629   4.456613   5.585113   4.627878
    25  H    2.113177   5.442759   6.296908   6.550209   5.516831
    26  H    2.772859   5.447470   6.016417   5.714353   4.202868
    27  H    3.460968   5.344289   5.617177   5.854976   4.031205
    28  H    2.700136   6.586920   7.144734   7.144328   5.527139
    29  H    1.094115   5.830951   7.022695   6.465380   5.853287
    30  H    1.094895   5.816116   7.170894   6.883834   6.530375
    31  H    1.095873   6.852417   7.940121   7.711813   6.813624
                   16         17         18         19         20
    16  H    0.000000
    17  H    2.787489   0.000000
    18  H    3.886438   1.740054   0.000000
    19  H    2.255372   2.271460   2.584773   0.000000
    20  H    4.216700   2.413164   2.474126   4.229869   0.000000
    21  H    4.084641   3.043238   2.448470   3.927350   1.746847
    22  H    2.419818   4.228359   4.983762   4.227027   4.301493
    23  H    3.045603   4.110482   4.222466   3.940056   3.833032
    24  H    2.260864   4.798407   5.393159   3.594084   5.756306
    25  H    3.593485   4.255450   3.763795   2.402227   5.382154
    26  H    4.742372   4.118162   2.896980   3.868976   3.747942
    27  H    4.117025   4.616109   3.962153   3.850255   4.535701
    28  H    5.288058   5.293794   4.164912   4.265298   5.403703
    29  H    5.057883   3.713703   2.201221   3.146681   4.450984
    30  H    4.570422   3.819987   2.982626   2.361251   5.364344
    31  H    5.502702   4.971951   3.746857   3.597701   5.903565
                   21         22         23         24         25
    21  H    0.000000
    22  H    3.817399   0.000000
    23  H    2.698420   1.731751   0.000000
    24  H    5.002352   2.359699   2.795407   0.000000
    25  H    4.263156   4.588898   3.654147   3.388640   0.000000
    26  H    2.166220   4.761886   3.194631   5.031407   3.054473
    27  H    2.923051   3.733442   2.116506   3.664492   2.484769
    28  H    3.821541   5.405436   3.840461   4.955668   2.432176
    29  H    3.698612   6.173699   5.030128   5.913393   3.048592
    30  H    4.773486   6.213491   5.395765   5.379978   2.496732
    31  H    4.846488   6.599812   5.396392   5.758236   2.397099
                   26         27         28         29         30
    26  H    0.000000
    27  H    1.779623   0.000000
    28  H    1.758137   1.752851   0.000000
    29  H    2.574120   3.779409   3.027084   0.000000
    30  H    3.778442   4.324669   3.719524   1.775499   0.000000
    31  H    3.142163   3.730642   2.495474   1.763907   1.765803
                   31
    31  H    0.000000
 Stoichiometry    C10H20O
 Framework group  C1[X(C10H20O)]
 Deg. of freedom    87
 Full point group                 C1      NOp   1
 Largest Abelian subgroup         C1      NOp   1
 Largest concise Abelian subgroup C1      NOp   1
                         Standard orientation:                         
 ---------------------------------------------------------------------
 Center     Atomic      Atomic             Coordinates (Angstroms)
 Number     Number       Type             X           Y           Z
 ---------------------------------------------------------------------
      1          6           0        3.117620   -0.447393   -0.460745
      2          6           0        2.042944   -0.409448    0.629301
      3          6           0        0.379556    1.173139   -0.497206
      4          6           0        0.077328   -1.348529   -0.712063
      5          6           0       -0.623489    0.024118   -0.765631
      6          6           0        1.027824   -1.543982    0.468455
      7          6           0        1.330416    0.943167    0.678814
      8          8           0       -0.306849    2.408783   -0.319008
      9          6           0       -1.985406    0.119977   -0.004365
     10          6           0       -1.925446   -0.070135    1.508666
     11          6           0       -3.028205   -0.846993   -0.587037
     12          1           0        2.702190   -0.312365   -1.463480
     13          1           0        3.858580    0.342457   -0.297083
     14          1           0        3.646977   -1.406136   -0.444859
     15          1           0        2.559849   -0.553283    1.587234
     16          1           0        0.987226    1.292840   -1.403249
     17          1           0        0.657797   -1.465235   -1.636903
     18          1           0       -0.648642   -2.167013   -0.726677
     19          1           0       -0.918399    0.160229   -1.818568
     20          1           0        1.553566   -2.499680    0.350779
     21          1           0        0.452032   -1.634556    1.394646
     22          1           0        2.068386    1.755627    0.711566
     23          1           0        0.786451    1.033168    1.624615
     24          1           0        0.362448    3.104662   -0.203891
     25          1           0       -2.388347    1.125890   -0.182277
     26          1           0       -1.605526   -1.078568    1.781740
     27          1           0       -1.265053    0.656455    1.983807
     28          1           0       -2.919299    0.077982    1.947385
     29          1           0       -2.799548   -1.890218   -0.349370
     30          1           0       -3.093812   -0.746729   -1.675356
     31          1           0       -4.020938   -0.629304   -0.177121
 ---------------------------------------------------------------------
 Rotational constants (GHZ):      1.5677111      0.8243303      0.6823331
 Standard basis: STO-3G (5D, 7F)
 There are    75 symmetry adapted basis functions of A   symmetry.
 Integral buffers will be    131072 words long.
 Raffenetti 1 integral format.
 Two-electron integral symmetry is turned on.
    75 basis functions,   225 primitive gaussians,    75 cartesian basis functions
    44 alpha electrons       44 beta electrons
       nuclear repulsion energy       702.6336163835 Hartrees.
 NAtoms=   31 NActive=   31 NUniq=   31 SFac= 1.00D+00 NAtFMM=   60 NAOKFM=F Big=F
 One-electron integrals computed using PRISM.
 NBasis=    75 RedAO= T  NBF=    75
 NBsUse=    75 1.00D-06 NBFU=    75
 Harris functional with IExCor=  205 diagonalized for initial guess.
 ExpMin= 1.69D-01 ExpMax= 1.31D+02 ExpMxC= 1.31D+02 IAcc=1 IRadAn=         1 AccDes= 0.00D+00
 HarFok:  IExCor=  205 AccDes= 0.00D+00 IRadAn=         1 IDoV= 1
 ScaDFX=  1.000000  1.000000  1.000000  1.000000
 FoFCou: FMM=F IPFlag=           0 FMFlag=      100000 FMFlg1=           0
         NFxFlg=           0 DoJE=T BraDBF=F KetDBF=T FulRan=T
         Omega=  0.000000  0.000000  1.000000  0.000000  0.000000 ICntrl=     500 IOpCl=  0
         NMat0=    1 NMatS0=    1 NMatT0=    0 NMatD0=    1 NMtDS0=    0 NMtDT0=    0
         I1Cent=           4 NGrid=           0.
 Petite list used in FoFCou.
 Initial guess orbital symmetries:
       Occupied  (A) (A) (A) (A) (A) (A) (A) (A) (A) (A) (A) (A)
                 (A) (A) (A) (A) (A) (A) (A) (A) (A) (A) (A) (A)
                 (A) (A) (A) (A) (A) (A) (A) (A) (A) (A) (A) (A)
                 (A) (A) (A) (A) (A) (A) (A) (A)
       Virtual   (A) (A) (A) (A) (A) (A) (A) (A) (A) (A) (A) (A)
                 (A) (A) (A) (A) (A) (A) (A) (A) (A) (A) (A) (A)
                 (A) (A) (A) (A) (A) (A) (A)
 The electronic state of the initial guess is 1-A.
 Requested convergence on RMS density matrix=1.00D-08 within 128 cycles.
 Requested convergence on MAX density matrix=1.00D-06.
 Requested convergence on             energy=1.00D-06.
 No special actions if energy rises.
 Keep R1 ints in memory in canonical form, NReq=4898789.
 SCF Done:  E(RHF) =  -459.609543192     A.U. after   10 cycles
             Convg  =    0.7620D-08             -V/T =  2.0089
 Range of M.O.s used for correlation:     1    75
 NBasis=    75 NAE=    44 NBE=    44 NFC=     0 NFV=     0
 NROrb=     75 NOA=    44 NOB=    44 NVA=    31 NVB=    31
          Differentiating once with respect to magnetic field using GIAOs.
          Electric field/nuclear overlap derivatives assumed to be zero.
          Keep R3 ints in memory in canonical form, NReq=4863575.
 FoFCou: FMM=F IPFlag=           0 FMFlag=           0 FMFlg1=           0
         NFxFlg=           0 DoJE=F BraDBF=F KetDBF=T FulRan=T
         Omega=  0.000000  0.000000  1.000000  0.000000  0.000000 ICntrl=    6100 IOpCl=  0
         NMat0=    1 NMatS0=    1 NMatT0=    0 NMatD0=    1 NMtDS0=    0 NMtDT0=    0
         I1Cent=           7 NGrid=          31.
 Symmetry not used in FoFCou.
          There are     3 degrees of freedom in the 1st order CPHF.  IDoFFX=0.
      3 vectors produced by pass  0 Test12= 4.55D-14 3.33D-08 XBig12= 6.42D+00 4.04D-01.
 AX will form     3 AO Fock derivatives at one time.
      3 vectors produced by pass  1 Test12= 4.55D-14 3.33D-08 XBig12= 1.06D-02 1.61D-02.
      3 vectors produced by pass  2 Test12= 4.55D-14 3.33D-08 XBig12= 1.24D-04 3.34D-03.
      3 vectors produced by pass  3 Test12= 4.55D-14 3.33D-08 XBig12= 1.48D-06 4.39D-04.
      3 vectors produced by pass  4 Test12= 4.55D-14 3.33D-08 XBig12= 1.87D-08 2.93D-05.
      3 vectors produced by pass  5 Test12= 4.55D-14 3.33D-08 XBig12= 2.48D-10 2.20D-06.
      3 vectors produced by pass  6 Test12= 4.55D-14 3.33D-08 XBig12= 2.26D-12 2.65D-07.
 Inverted reduced A of dimension    21 with in-core refinement.
 Calculating GIAO nuclear magnetic shielding tensors.
 SCF GIAO Magnetic shielding tensor (ppm):
      1  C    Isotropic =   222.9260   Anisotropy =    25.1358
   XX=   230.0227   YX=    -0.4325   ZX=   -12.0495
   XY=     0.0252   YY=   220.0011   ZY=     1.5827
   XZ=   -16.2215   YZ=     2.2196   ZZ=   218.7542
   Eigenvalues:   208.9774   220.1174   239.6832
      2  C    Isotropic =   216.6712   Anisotropy =     5.4572
   XX=   219.6994   YX=     0.2138   ZX=    -2.6762
   XY=     0.4202   YY=   218.2056   ZY=     1.0790
   XZ=    -1.7821   YZ=     0.5882   ZZ=   212.1087
   Eigenvalues:   211.3869   218.3174   220.3094
      3  C    Isotropic =   190.4098   Anisotropy =    40.6872
   XX=   187.3831   YX=   -13.6467   ZX=     0.5538
   XY=   -11.9152   YY=   210.8797   ZY=     6.0420
   XZ=     0.3590   YZ=     9.1948   ZZ=   172.9666
   Eigenvalues:   170.8469   182.8479   217.5346
      4  C    Isotropic =   221.3704   Anisotropy =    15.4366
   XX=   221.8050   YX=    -7.6327   ZX=     5.6059
   XY=    -7.3100   YY=   224.6939   ZY=     1.1692
   XZ=     5.2994   YZ=    -0.4890   ZZ=   217.6122
   Eigenvalues:   211.8753   220.5744   231.6614
      5  C    Isotropic =   211.7071   Anisotropy =    16.7085
   XX=   220.6887   YX=     5.8775   ZX=    -6.6781
   XY=     0.2215   YY=   209.5092   ZY=     2.5208
   XZ=    -4.6102   YZ=     2.7599   ZZ=   204.9235
   Eigenvalues:   201.5738   210.7015   222.8461
      6  C    Isotropic =   218.5234   Anisotropy =    11.5444
   XX=   223.8213   YX=     3.2201   ZX=     1.1752
   XY=     4.3775   YY=   219.4101   ZY=    -2.6350
   XZ=     3.5772   YZ=     1.1520   ZZ=   212.3387
   Eigenvalues:   211.5519   217.7985   226.2196
      7  C    Isotropic =   216.4869   Anisotropy =    15.0566
   XX=   219.6924   YX=    -6.3290   ZX=     3.2916
   XY=    -4.9610   YY=   219.3102   ZY=     2.2168
   XZ=     6.3217   YZ=    -5.6500   ZZ=   210.4580
   Eigenvalues:   208.3623   214.5737   226.5246
      8  O    Isotropic =   357.9423   Anisotropy =    94.4051
   XX=   372.4931   YX=    59.5377   ZX=    21.8705
   XY=    34.5950   YY=   372.0445   ZY=    -0.4463
   XZ=     6.8989   YZ=     5.1092   ZZ=   329.2893
   Eigenvalues:   317.9525   334.9954   420.8791
      9  C    Isotropic =   214.9833   Anisotropy =    14.8226
   XX=   223.7055   YX=     2.4236   ZX=    -2.5472
   XY=     2.6093   YY=   205.5539   ZY=     2.6500
   XZ=    -3.7413   YZ=     5.0041   ZZ=   215.6904
   Eigenvalues:   203.6884   216.3965   224.8650
     10  C    Isotropic =   223.0711   Anisotropy =    19.4180
   XX=   219.4742   YX=     0.5303   ZX=    -0.5722
   XY=     0.4263   YY=   213.7583   ZY=    -2.2941
   XZ=     1.4395   YZ=     0.8013   ZZ=   235.9809
   Eigenvalues:   213.6913   219.5057   236.0165
     11  C    Isotropic =   220.5735   Anisotropy =    28.2789
   XX=   226.0843   YX=    10.7087   ZX=     8.6977
   XY=    13.7117   YY=   215.4648   ZY=     8.5679
   XZ=     5.9673   YZ=     5.9163   ZZ=   220.1715
   Eigenvalues:   207.0179   215.2766   239.4261
     12  H    Isotropic =    32.6104   Anisotropy =     8.4981
   XX=    32.9852   YX=    -0.6834   ZX=    -1.0967
   XY=    -0.7177   YY=    26.8006   ZY=    -0.7700
   XZ=    -0.9405   YZ=    -0.7497   ZZ=    38.0453
   Eigenvalues:    26.6553    32.9001    38.2758
     13  H    Isotropic =    32.6900   Anisotropy =    14.2184
   XX=    38.7762   YX=     5.7353   ZX=    -1.2923
   XY=     5.7671   YY=    32.1865   ZY=     0.7685
   XZ=    -1.5168   YZ=     0.3188   ZZ=    27.1073
   Eigenvalues:    26.4712    29.4299    42.1690
     14  H    Isotropic =    32.6311   Anisotropy =    14.4028
   XX=    35.7539   YX=    -6.4292   ZX=    -2.3503
   XY=    -6.4245   YY=    35.0442   ZY=     0.7323
   XZ=    -2.4411   YZ=     1.3260   ZZ=    27.0953
   Eigenvalues:    26.3928    29.2676    42.2330
     15  H    Isotropic =    32.4391   Anisotropy =    14.7625
   XX=    32.4208   YX=    -1.2617   ZX=     6.3318
   XY=    -1.1988   YY=    27.1642   ZY=    -1.7491
   XZ=     6.3973   YZ=    -1.7950   ZZ=    37.7324
   Eigenvalues:    26.8552    28.1814    42.2808
     16  H    Isotropic =    31.8987   Anisotropy =     9.6920
   XX=    31.4970   YX=     0.7321   ZX=    -4.8415
   XY=     0.5973   YY=    29.7632   ZY=    -2.3977
   XZ=    -3.6826   YZ=    -3.3797   ZZ=    34.4358
   Eigenvalues:    27.5641    29.7719    38.3600
     17  H    Isotropic =    32.6268   Anisotropy =    12.8869
   XX=    31.5944   YX=    -2.2419   ZX=    -3.8282
   XY=    -1.9954   YY=    28.6909   ZY=     4.3905
   XZ=    -3.5195   YZ=     4.3418   ZZ=    37.5952
   Eigenvalues:    26.8105    29.8519    41.2181
     18  H    Isotropic =    32.4390   Anisotropy =    12.7098
   XX=    34.8526   YX=     4.2120   ZX=     1.7573
   XY=     4.5064   YY=    36.9046   ZY=     2.6035
   XZ=     1.4455   YZ=     2.3073   ZZ=    25.5598
   Eigenvalues:    24.9939    31.4109    40.9122
     19  H    Isotropic =    32.0534   Anisotropy =    12.2773
   XX=    30.2909   YX=     0.3441   ZX=     2.7942
   XY=     0.7903   YY=    26.7602   ZY=    -1.5360
   XZ=     3.3055   YZ=    -2.0436   ZZ=    39.1090
   Eigenvalues:    26.2188    29.7030    40.2383
     20  H    Isotropic =    32.6529   Anisotropy =    14.6698
   XX=    31.5566   YX=    -4.8567   ZX=     0.9041
   XY=    -4.6560   YY=    40.2704   ZY=    -1.0628
   XZ=     0.6644   YZ=    -0.5654   ZZ=    26.1319
   Eigenvalues:    26.0189    29.5072    42.4328
     21  H    Isotropic =    32.6206   Anisotropy =    11.4687
   XX=    32.9190   YX=     0.8837   ZX=    -4.3621
   XY=     1.0694   YY=    29.1728   ZY=    -4.1971
   XZ=    -4.0017   YZ=    -4.3248   ZZ=    35.7699
   Eigenvalues:    26.8737    30.7217    40.2664
     22  H    Isotropic =    32.9777   Anisotropy =    13.4103
   XX=    34.6240   YX=     5.1531   ZX=     2.2788
   XY=     5.4176   YY=    37.2085   ZY=     2.2538
   XZ=     1.6480   YZ=     1.9905   ZZ=    27.1005
   Eigenvalues:    26.5267    30.4884    41.9179
     23  H    Isotropic =    32.3664   Anisotropy =    10.5921
   XX=    31.4281   YX=    -0.8410   ZX=    -3.2257
   XY=    -0.9305   YY=    28.6533   ZY=     3.1704
   XZ=    -3.1096   YZ=     3.1536   ZZ=    37.0177
   Eigenvalues:    27.5825    30.0888    39.4278
     24  H    Isotropic =    35.0633   Anisotropy =    19.5866
   XX=    34.3841   YX=     6.3835   ZX=     1.1757
   XY=     4.6171   YY=    45.8159   ZY=     0.9322
   XZ=     1.3728   YZ=     1.1230   ZZ=    24.9899
   Eigenvalues:    24.8153    32.2536    48.1210
     25  H    Isotropic =    31.7420   Anisotropy =    11.6840
   XX=    33.0440   YX=    -3.7950   ZX=     0.5764
   XY=    -3.5104   YY=    37.1377   ZY=    -2.0744
   XZ=     0.3835   YZ=    -1.7994   ZZ=    25.0444
   Eigenvalues:    24.7407    30.9540    39.5314
     26  H    Isotropic =    32.8207   Anisotropy =     8.7274
   XX=    31.1185   YX=    -2.2303   ZX=    -0.8972
   XY=    -2.1038   YY=    34.5804   ZY=    -4.6115
   XZ=    -0.9870   YZ=    -4.8248   ZZ=    32.7632
   Eigenvalues:    27.5762    32.2470    38.6390
     27  H    Isotropic =    32.4583   Anisotropy =     9.4689
   XX=    32.9535   YX=     4.2533   ZX=     0.5757
   XY=     4.1332   YY=    30.0068   ZY=     4.3484
   XZ=     0.6544   YZ=     4.6925   ZZ=    34.4146
   Eigenvalues:    25.6209    32.9830    38.7709
     28  H    Isotropic =    32.5094   Anisotropy =    14.9642
   XX=    37.1403   YX=    -1.1763   ZX=    -6.5000
   XY=    -0.9632   YY=    26.4638   ZY=     1.4588
   XZ=    -6.6359   YZ=     1.4848   ZZ=    33.9242
   Eigenvalues:    26.1782    28.8645    42.4856
     29  H    Isotropic =    32.5256   Anisotropy =     9.9970
   XX=    31.8898   YX=     1.9915   ZX=     0.9033
   XY=     1.9293   YY=    38.6638   ZY=    -0.1519
   XZ=     0.8605   YZ=    -0.2742   ZZ=    27.0233
   Eigenvalues:    26.8413    31.5453    39.1903
     30  H    Isotropic =    32.5234   Anisotropy =    13.0302
   XX=    31.9475   YX=     1.6717   ZX=     4.5846
   XY=     1.6348   YY=    26.8041   ZY=     1.2335
   XZ=     4.4164   YZ=     0.5611   ZZ=    38.8185
   Eigenvalues:    26.3004    30.0596    41.2102
     31  H    Isotropic =    32.3627   Anisotropy =    14.6429
   XX=    41.8918   YX=     0.3197   ZX=    -1.6996
   XY=     0.6636   YY=    26.9339   ZY=     1.0495
   XZ=    -1.8309   YZ=     1.2106   ZZ=    28.2622
   Eigenvalues:    26.1749    28.7885    42.1246
 End of Minotr Frequency-dependent properties file   721 does not exist.
 End of Minotr Frequency-dependent properties file   722 does not exist.

 **********************************************************************

            Population analysis using the SCF density.

 **********************************************************************

 Orbital symmetries:
       Occupied  (A) (A) (A) (A) (A) (A) (A) (A) (A) (A) (A) (A)
                 (A) (A) (A) (A) (A) (A) (A) (A) (A) (A) (A) (A)
                 (A) (A) (A) (A) (A) (A) (A) (A) (A) (A) (A) (A)
                 (A) (A) (A) (A) (A) (A) (A) (A)
       Virtual   (A) (A) (A) (A) (A) (A) (A) (A) (A) (A) (A) (A)
                 (A) (A) (A) (A) (A) (A) (A) (A) (A) (A) (A) (A)
                 (A) (A) (A) (A) (A) (A) (A)
 The electronic state is 1-A.
 Alpha  occ. eigenvalues --  -20.23751 -11.08529 -11.04860 -11.04215 -11.03958
 Alpha  occ. eigenvalues --  -11.03666 -11.03641 -11.03536 -11.03292 -11.02509
 Alpha  occ. eigenvalues --  -11.02362  -1.27812  -1.08090  -1.03200  -0.96567
 Alpha  occ. eigenvalues --   -0.94680  -0.89211  -0.88042  -0.80436  -0.78236
 Alpha  occ. eigenvalues --   -0.72824  -0.66944  -0.62036  -0.61819  -0.60473
 Alpha  occ. eigenvalues --   -0.57174  -0.55865  -0.54864  -0.53627  -0.52010
 Alpha  occ. eigenvalues --   -0.50545  -0.50102  -0.49084  -0.48459  -0.46229
 Alpha  occ. eigenvalues --   -0.46148  -0.43985  -0.42509  -0.41922  -0.41037
 Alpha  occ. eigenvalues --   -0.38971  -0.38159  -0.36228  -0.33045
 Alpha virt. eigenvalues --    0.52765   0.56287   0.56749   0.59598   0.61249
 Alpha virt. eigenvalues --    0.61417   0.62395   0.63208   0.64215   0.67737
 Alpha virt. eigenvalues --    0.68406   0.69806   0.70443   0.71429   0.71880
 Alpha virt. eigenvalues --    0.72238   0.73333   0.74200   0.75243   0.75795
 Alpha virt. eigenvalues --    0.77195   0.79462   0.80558   0.81307   0.81371
 Alpha virt. eigenvalues --    0.81815   0.83164   0.83842   0.84785   0.85261
 Alpha virt. eigenvalues --    0.86541
          Condensed to atoms (all electrons):
              1          2          3          4          5          6
     1  C    4.744168   0.364451  -0.001420  -0.001435   0.000075  -0.023900
     2  C    0.364451   4.740847  -0.018898  -0.021266  -0.002920   0.363498
     3  C   -0.001420  -0.018898   4.740386  -0.020899   0.355229  -0.004755
     4  C   -0.001435  -0.021266  -0.020899   4.754530   0.359583   0.363042
     5  C    0.000075  -0.002920   0.355229   0.359583   4.774415  -0.019774
     6  C   -0.023900   0.363498  -0.004755   0.363042  -0.019774   4.755546
     7  C   -0.024067   0.361689   0.358218  -0.004356  -0.020432  -0.023888
     8  O    0.000001   0.000241   0.267904   0.000185  -0.015895   0.000002
     9  C    0.000000   0.000026  -0.017710  -0.018668   0.356231  -0.000035
    10  C    0.000000   0.000038  -0.000512  -0.000874  -0.019657  -0.000614
    11  C    0.000000   0.000000   0.000565  -0.002025  -0.021718   0.000019
    12  H    0.382525  -0.019868  -0.000450  -0.000401   0.000044  -0.001654
    13  H    0.382287  -0.020321   0.000018   0.000005  -0.000002   0.001255
    14  H    0.382456  -0.020211   0.000008   0.000026  -0.000001  -0.002266
    15  H   -0.025263   0.383442   0.001177   0.001222  -0.000002  -0.023284
    16  H   -0.000480  -0.000911   0.376403  -0.000262  -0.025143   0.000085
    17  H   -0.000437  -0.001393  -0.000454   0.381603  -0.022967  -0.024131
    18  H    0.000009   0.001212   0.001042   0.383357  -0.019911  -0.021829
    19  H    0.000000   0.000011  -0.025387  -0.024481   0.380763   0.001237
    20  H   -0.003179  -0.021519   0.000030  -0.021802   0.001143   0.382257
    21  H    0.001324  -0.022752   0.000058  -0.022856  -0.000941   0.382438
    22  H   -0.003246  -0.020913  -0.022253   0.000019   0.001068   0.001250
    23  H    0.001309  -0.021276  -0.022337   0.000101  -0.001054  -0.001267
    24  H    0.000002   0.000007  -0.040848  -0.000032   0.002364  -0.000001
    25  H    0.000000  -0.000001  -0.002349   0.001044  -0.022531  -0.000015
    26  H    0.000000  -0.000001   0.000008   0.000131  -0.001293  -0.001109
    27  H    0.000000  -0.000006   0.000062   0.000014  -0.001462  -0.000012
    28  H    0.000000   0.000000  -0.000005  -0.000005   0.001097   0.000011
    29  H    0.000000   0.000000  -0.000006  -0.000798  -0.001060   0.000013
    30  H    0.000000   0.000000   0.000021   0.000022  -0.002688   0.000000
    31  H    0.000000   0.000000  -0.000012   0.000021   0.001130   0.000000
              7          8          9         10         11         12
     1  C   -0.024067   0.000001   0.000000   0.000000   0.000000   0.382525
     2  C    0.361689   0.000241   0.000026   0.000038   0.000000  -0.019868
     3  C    0.358218   0.267904  -0.017710  -0.000512   0.000565  -0.000450
     4  C   -0.004356   0.000185  -0.018668  -0.000874  -0.002025  -0.000401
     5  C   -0.020432  -0.015895   0.356231  -0.019657  -0.021718   0.000044
     6  C   -0.023888   0.000002  -0.000035  -0.000614   0.000019  -0.001654
     7  C    4.786402  -0.019345  -0.000114  -0.000572  -0.000004  -0.001614
     8  O   -0.019345   7.845127  -0.001608  -0.000023   0.000002   0.000000
     9  C   -0.000114  -0.001608   4.738727   0.363968   0.363922  -0.000001
    10  C   -0.000572  -0.000023   0.363968   4.743229  -0.027118   0.000000
    11  C   -0.000004   0.000002   0.363922  -0.027118   4.745805   0.000000
    12  H   -0.001614   0.000000  -0.000001   0.000000   0.000000   0.631458
    13  H   -0.002289   0.000000   0.000000   0.000000   0.000000  -0.022075
    14  H    0.001257   0.000000   0.000000   0.000000   0.000000  -0.021931
    15  H   -0.023401  -0.000005  -0.000001   0.000004   0.000000   0.001919
    16  H   -0.028799  -0.020174   0.001073  -0.000012  -0.000013  -0.000581
    17  H    0.000050  -0.000001   0.001157  -0.000007   0.000031  -0.000547
    18  H    0.000010  -0.000003  -0.003096   0.000031  -0.000963  -0.000003
    19  H    0.001240  -0.000004  -0.026270   0.001233  -0.003684   0.000011
    20  H    0.001253   0.000000  -0.000009   0.000009   0.000000   0.000019
    21  H   -0.001320  -0.000001   0.000095  -0.001164   0.000014  -0.000003
    22  H    0.380415  -0.000962  -0.000010   0.000010   0.000000   0.000016
    23  H    0.381011  -0.000827   0.000070  -0.001148  -0.000001  -0.000003
    24  H   -0.003289   0.258387   0.000091  -0.000004   0.000000   0.000000
    25  H    0.000032   0.000470   0.382426  -0.024796  -0.025062   0.000000
    26  H    0.000023   0.000000  -0.020876   0.382624  -0.002401   0.000000
    27  H   -0.001227   0.000081  -0.019787   0.383673   0.001370   0.000000
    28  H    0.000009   0.000001  -0.020003   0.381678  -0.002708   0.000000
    29  H    0.000000   0.000000  -0.020198  -0.002660   0.381961   0.000000
    30  H    0.000000   0.000000  -0.019977   0.001330   0.382027   0.000000
    31  H    0.000000   0.000000  -0.019716  -0.001982   0.382666   0.000000
             13         14         15         16         17         18
     1  C    0.382287   0.382456  -0.025263  -0.000480  -0.000437   0.000009
     2  C   -0.020321  -0.020211   0.383442  -0.000911  -0.001393   0.001212
     3  C    0.000018   0.000008   0.001177   0.376403  -0.000454   0.001042
     4  C    0.000005   0.000026   0.001222  -0.000262   0.381603   0.383357
     5  C   -0.000002  -0.000001  -0.000002  -0.025143  -0.022967  -0.019911
     6  C    0.001255  -0.002266  -0.023284   0.000085  -0.024131  -0.021829
     7  C   -0.002289   0.001257  -0.023401  -0.028799   0.000050   0.000010
     8  O    0.000000   0.000000  -0.000005  -0.020174  -0.000001  -0.000003
     9  C    0.000000   0.000000  -0.000001   0.001073   0.001157  -0.003096
    10  C    0.000000   0.000000   0.000004  -0.000012  -0.000007   0.000031
    11  C    0.000000   0.000000   0.000000  -0.000013   0.000031  -0.000963
    12  H   -0.022075  -0.021931   0.001919  -0.000581  -0.000547  -0.000003
    13  H    0.632055  -0.021528  -0.002485   0.000042  -0.000003   0.000000
    14  H   -0.021528   0.629876  -0.002497   0.000001   0.000047  -0.000004
    15  H   -0.002485  -0.002497   0.649605  -0.000021  -0.000008  -0.000030
    16  H    0.000042   0.000001  -0.000021   0.670903   0.000114  -0.000012
    17  H   -0.000003   0.000047  -0.000008   0.000114   0.650170  -0.024067
    18  H    0.000000  -0.000004  -0.000030  -0.000012  -0.024067   0.634145
    19  H    0.000000   0.000000   0.000003  -0.006105  -0.005896  -0.000452
    20  H    0.000036   0.000189  -0.001368  -0.000005  -0.003358  -0.001692
    21  H   -0.000036   0.000029  -0.003724   0.000003   0.002051  -0.003035
    22  H    0.000189   0.000038  -0.001364  -0.003373  -0.000006   0.000002
    23  H    0.000027  -0.000034  -0.003774   0.002014   0.000003  -0.000009
    24  H    0.000000   0.000000  -0.000001  -0.003318   0.000000   0.000001
    25  H    0.000000   0.000000   0.000000   0.000035  -0.000031   0.000033
    26  H    0.000000   0.000000   0.000002  -0.000001  -0.000004   0.000031
    27  H    0.000000   0.000000   0.000003  -0.000002  -0.000002   0.000008
    28  H    0.000000   0.000000   0.000000   0.000001   0.000001  -0.000010
    29  H    0.000000   0.000000   0.000000   0.000000  -0.000008  -0.000724
    30  H    0.000000   0.000000   0.000000  -0.000001  -0.000013   0.000023
    31  H    0.000000   0.000000   0.000000   0.000000   0.000001  -0.000003
             19         20         21         22         23         24
     1  C    0.000000  -0.003179   0.001324  -0.003246   0.001309   0.000002
     2  C    0.000011  -0.021519  -0.022752  -0.020913  -0.021276   0.000007
     3  C   -0.025387   0.000030   0.000058  -0.022253  -0.022337  -0.040848
     4  C   -0.024481  -0.021802  -0.022856   0.000019   0.000101  -0.000032
     5  C    0.380763   0.001143  -0.000941   0.001068  -0.001054   0.002364
     6  C    0.001237   0.382257   0.382438   0.001250  -0.001267  -0.000001
     7  C    0.001240   0.001253  -0.001320   0.380415   0.381011  -0.003289
     8  O   -0.000004   0.000000  -0.000001  -0.000962  -0.000827   0.258387
     9  C   -0.026270  -0.000009   0.000095  -0.000010   0.000070   0.000091
    10  C    0.001233   0.000009  -0.001164   0.000010  -0.001148  -0.000004
    11  C   -0.003684   0.000000   0.000014   0.000000  -0.000001   0.000000
    12  H    0.000011   0.000019  -0.000003   0.000016  -0.000003   0.000000
    13  H    0.000000   0.000036  -0.000036   0.000189   0.000027   0.000000
    14  H    0.000000   0.000189   0.000029   0.000038  -0.000034   0.000000
    15  H    0.000003  -0.001368  -0.003724  -0.001364  -0.003774  -0.000001
    16  H   -0.006105  -0.000005   0.000003  -0.003373   0.002014  -0.003318
    17  H   -0.005896  -0.003358   0.002051  -0.000006   0.000003   0.000000
    18  H   -0.000452  -0.001692  -0.003035   0.000002  -0.000009   0.000001
    19  H    0.660306  -0.000032  -0.000012  -0.000033  -0.000012  -0.000036
    20  H   -0.000032   0.641857  -0.023830  -0.000033   0.000008   0.000000
    21  H   -0.000012  -0.023830   0.643175   0.000004   0.000146   0.000000
    22  H   -0.000033  -0.000033   0.000004   0.650424  -0.025316   0.000492
    23  H   -0.000012   0.000008   0.000146  -0.025316   0.637181  -0.000019
    24  H   -0.000036   0.000000   0.000000   0.000492  -0.000019   0.608553
    25  H   -0.002510   0.000001  -0.000005  -0.000003   0.000021  -0.000037
    26  H   -0.000003   0.000025  -0.000757   0.000000  -0.000014   0.000000
    27  H    0.000009   0.000001  -0.000081   0.000022  -0.000713  -0.000009
    28  H   -0.000034   0.000000   0.000022   0.000000   0.000018   0.000000
    29  H    0.000025   0.000001   0.000003   0.000000   0.000000   0.000000
    30  H    0.000164   0.000000   0.000000   0.000000   0.000000   0.000000
    31  H    0.000046   0.000000   0.000000   0.000000   0.000000   0.000000
             25         26         27         28         29         30
     1  C    0.000000   0.000000   0.000000   0.000000   0.000000   0.000000
     2  C   -0.000001  -0.000001  -0.000006   0.000000   0.000000   0.000000
     3  C   -0.002349   0.000008   0.000062  -0.000005  -0.000006   0.000021
     4  C    0.001044   0.000131   0.000014  -0.000005  -0.000798   0.000022
     5  C   -0.022531  -0.001293  -0.001462   0.001097  -0.001060  -0.002688
     6  C   -0.000015  -0.001109  -0.000012   0.000011   0.000013   0.000000
     7  C    0.000032   0.000023  -0.001227   0.000009   0.000000   0.000000
     8  O    0.000470   0.000000   0.000081   0.000001   0.000000   0.000000
     9  C    0.382426  -0.020876  -0.019787  -0.020003  -0.020198  -0.019977
    10  C   -0.024796   0.382624   0.383673   0.381678  -0.002660   0.001330
    11  C   -0.025062  -0.002401   0.001370  -0.002708   0.381961   0.382027
    12  H    0.000000   0.000000   0.000000   0.000000   0.000000   0.000000
    13  H    0.000000   0.000000   0.000000   0.000000   0.000000   0.000000
    14  H    0.000000   0.000000   0.000000   0.000000   0.000000   0.000000
    15  H    0.000000   0.000002   0.000003   0.000000   0.000000   0.000000
    16  H    0.000035  -0.000001  -0.000002   0.000001   0.000000  -0.000001
    17  H   -0.000031  -0.000004  -0.000002   0.000001  -0.000008  -0.000013
    18  H    0.000033   0.000031   0.000008  -0.000010  -0.000724   0.000023
    19  H   -0.002510  -0.000003   0.000009  -0.000034   0.000025   0.000164
    20  H    0.000001   0.000025   0.000001   0.000000   0.000001   0.000000
    21  H   -0.000005  -0.000757  -0.000081   0.000022   0.000003   0.000000
    22  H   -0.000003   0.000000   0.000022   0.000000   0.000000   0.000000
    23  H    0.000021  -0.000014  -0.000713   0.000018   0.000000   0.000000
    24  H   -0.000037   0.000000  -0.000009   0.000000   0.000000   0.000000
    25  H    0.636217   0.001959  -0.002241  -0.002785   0.001936  -0.001761
    26  H    0.001959   0.634514  -0.021494  -0.022484   0.000406   0.000011
    27  H   -0.002241  -0.021494   0.627241  -0.022293   0.000016  -0.000038
    28  H   -0.002785  -0.022484  -0.022293   0.634291  -0.000037   0.000038
    29  H    0.001936   0.000406   0.000016  -0.000037   0.634864  -0.021746
    30  H   -0.001761   0.000011  -0.000038   0.000038  -0.021746   0.632296
    31  H   -0.003348  -0.000011   0.000023   0.000046  -0.022392  -0.021725
             31
     1  C    0.000000
     2  C    0.000000
     3  C   -0.000012
     4  C    0.000021
     5  C    0.001130
     6  C    0.000000
     7  C    0.000000
     8  O    0.000000
     9  C   -0.019716
    10  C   -0.001982
    11  C    0.382666
    12  H    0.000000
    13  H    0.000000
    14  H    0.000000
    15  H    0.000000
    16  H    0.000000
    17  H    0.000001
    18  H   -0.000003
    19  H    0.000046
    20  H    0.000000
    21  H    0.000000
    22  H    0.000000
    23  H    0.000000
    24  H    0.000000
    25  H   -0.003348
    26  H   -0.000011
    27  H    0.000023
    28  H    0.000046
    29  H   -0.022392
    30  H   -0.021725
    31  H    0.631558
 Mulliken atomic charges:
              1
     1  C   -0.175177
     2  C   -0.023204
     3  C    0.077168
     4  C   -0.104747
     5  C   -0.033691
     6  C   -0.102120
     7  C   -0.116893
     8  O   -0.313552
     9  C   -0.019707
    10  C   -0.176683
    11  C   -0.172682
    12  H    0.053139
    13  H    0.052824
    14  H    0.054544
    15  H    0.049852
    16  H    0.038537
    17  H    0.048105
    18  H    0.055938
    19  H    0.049908
    20  H    0.050000
    21  H    0.051155
    22  H    0.043563
    23  H    0.055895
    24  H    0.177696
    25  H    0.063300
    26  H    0.050717
    27  H    0.056842
    28  H    0.053152
    29  H    0.050402
    30  H    0.052017
    31  H    0.053700
 Sum of Mulliken atomic charges =   0.00000
 Mulliken charges with hydrogens summed into heavy atoms:
              1
     1  C   -0.014669
     2  C    0.026648
     3  C    0.115705
     4  C   -0.000703
     5  C    0.016217
     6  C   -0.000966
     7  C   -0.017435
     8  O   -0.135855
     9  C    0.043593
    10  C   -0.015971
    11  C   -0.016563
 Sum of Mulliken charges with hydrogens summed into heavy atoms =   0.00000
 Electronic spatial extent (au):  <R**2>=           1962.5745
 Charge=              0.0000 electrons
 Dipole moment (field-independent basis, Debye):
    X=              1.2981    Y=             -0.2039    Z=              0.0304  Tot=              1.3144
 Quadrupole moment (field-independent basis, Debye-Ang):
   XX=            -67.8592   YY=            -66.8096   ZZ=            -67.6483
   XY=              3.4097   XZ=             -0.3285   YZ=              0.3221
 Traceless Quadrupole moment (field-independent basis, Debye-Ang):
   XX=             -0.4202   YY=              0.6294   ZZ=             -0.2093
   XY=              3.4097   XZ=             -0.3285   YZ=              0.3221
 Octapole moment (field-independent basis, Debye-Ang**2):
  XXX=             -3.6779  YYY=             20.6408  ZZZ=             -3.2381  XYY=             10.7401
  XXY=              6.2576  XXZ=              1.3501  XZZ=             -0.1179  YZZ=              4.8006
  YYZ=              0.8837  XYZ=             -0.7828
 Hexadecapole moment (field-independent basis, Debye-Ang**3):
 XXXX=          -1518.7022 YYYY=           -566.5288 ZZZZ=           -354.4310 XXXY=             -9.0500
 XXXZ=             -1.4916 YYYX=             22.7267 YYYZ=             -2.9259 ZZZX=              3.6911
 ZZZY=             -3.8558 XXYY=           -352.2347 XXZZ=           -314.6004 YYZZ=           -164.7208
 XXYZ=             -2.4090 YYXZ=             -3.5967 ZZXY=             -1.4548
 N-N= 7.026336163835D+02 E-N=-2.477335752375D+03  KE= 4.555424636201D+02
 ******************************Gaussian NBO Version 3.1******************************
             N A T U R A L   A T O M I C   O R B I T A L   A N D
          N A T U R A L   B O N D   O R B I T A L   A N A L Y S I S
 ******************************Gaussian NBO Version 3.1******************************
       /RESON  / : Allow strongly delocalized NBO set
       /NLMO   / : Form Natural Localized Molecular Orbitals
       /NMR /    : Analyze NMR Sheilding Tensor 

 Analyzing the SCF density

 Job title: comment                                                         

 Storage needed:     19864 in NPA,     23691 in NBO,     45933 in NLMO (  33549317 available)


 NATURAL POPULATIONS:  Natural atomic orbital occupancies 
                                                          
   NAO  Atom  No  lang   Type(AO)    Occupancy      Energy
 ----------------------------------------------------------
     1    C    1  S      Cor( 1S)     1.99997     -10.96654
     2    C    1  S      Val( 2S)     1.07974      -0.18382
     3    C    1  px     Val( 2p)     1.00962       0.08149
     4    C    1  py     Val( 2p)     1.02964       0.08083
     5    C    1  pz     Val( 2p)     1.01128       0.08650

     6    C    2  S      Cor( 1S)     1.99997     -10.99089
     7    C    2  S      Val( 2S)     1.07779      -0.19198
     8    C    2  px     Val( 2p)     0.96145       0.10877
     9    C    2  py     Val( 2p)     0.95857       0.10805
    10    C    2  pz     Val( 2p)     0.98646       0.09975

    11    C    3  S      Cor( 1S)     1.99988     -11.03467
    12    C    3  S      Val( 2S)     1.08680      -0.21565
    13    C    3  px     Val( 2p)     0.93217       0.10025
    14    C    3  py     Val( 2p)     0.86240       0.11142
    15    C    3  pz     Val( 2p)     0.97360       0.09249

    16    C    4  S      Cor( 1S)     1.99995     -10.97524
    17    C    4  S      Val( 2S)     1.08350      -0.18860
    18    C    4  px     Val( 2p)     1.00047       0.09373
    19    C    4  py     Val( 2p)     0.98750       0.09819
    20    C    4  pz     Val( 2p)     0.99612       0.09451

    21    C    5  S      Cor( 1S)     1.99994     -10.98853
    22    C    5  S      Val( 2S)     1.10263      -0.20983
    23    C    5  px     Val( 2p)     0.95406       0.11501
    24    C    5  py     Val( 2p)     0.95048       0.11346
    25    C    5  pz     Val( 2p)     1.00361       0.09036

    26    C    6  S      Cor( 1S)     1.99996     -10.97312
    27    C    6  S      Val( 2S)     1.08149      -0.18509
    28    C    6  px     Val( 2p)     0.99214       0.09639
    29    C    6  py     Val( 2p)     0.99357       0.09565
    30    C    6  pz     Val( 2p)     0.99820       0.09770

    31    C    7  S      Cor( 1S)     1.99996     -10.97427
    32    C    7  S      Val( 2S)     1.09106      -0.19663
    33    C    7  px     Val( 2p)     1.00575       0.08600
    34    C    7  py     Val( 2p)     0.99081       0.09090
    35    C    7  pz     Val( 2p)     1.00655       0.08744

    36    O    8  S      Cor( 1S)     1.99999     -20.14154
    37    O    8  S      Val( 2S)     1.74754      -0.99755
    38    O    8  px     Val( 2p)     1.49608      -0.18977
    39    O    8  py     Val( 2p)     1.13401      -0.02086
    40    O    8  pz     Val( 2p)     1.95697      -0.36298

    41    C    9  S      Cor( 1S)     1.99995     -10.98398
    42    C    9  S      Val( 2S)     1.08499      -0.18872
    43    C    9  px     Val( 2p)     0.95111       0.11756
    44    C    9  py     Val( 2p)     0.99769       0.10659
    45    C    9  pz     Val( 2p)     0.94588       0.12592

    46    C   10  S      Cor( 1S)     1.99997     -10.95657
    47    C   10  S      Val( 2S)     1.07836      -0.17174
    48    C   10  px     Val( 2p)     1.03322       0.08674
    49    C   10  py     Val( 2p)     1.02518       0.09555
    50    C   10  pz     Val( 2p)     0.99662       0.09458

    51    C   11  S      Cor( 1S)     1.99997     -10.95904
    52    C   11  S      Val( 2S)     1.08197      -0.17767
    53    C   11  px     Val( 2p)     1.01144       0.08928
    54    C   11  py     Val( 2p)     1.01279       0.09332
    55    C   11  pz     Val( 2p)     1.02153       0.09076

    56    H   12  S      Val( 1S)     0.96423       0.07311

    57    H   13  S      Val( 1S)     0.96426       0.07150

    58    H   14  S      Val( 1S)     0.96264       0.07317

    59    H   15  S      Val( 1S)     0.97427       0.06587

    60    H   16  S      Val( 1S)     0.99725       0.04878

    61    H   17  S      Val( 1S)     0.97263       0.07029

    62    H   18  S      Val( 1S)     0.96536       0.07595

    63    H   19  S      Val( 1S)     0.97586       0.07042

    64    H   20  S      Val( 1S)     0.97028       0.07076

    65    H   21  S      Val( 1S)     0.97014       0.07696

    66    H   22  S      Val( 1S)     0.97569       0.06011

    67    H   23  S      Val( 1S)     0.96510       0.07703

    68    H   24  S      Val( 1S)     0.80971       0.07448

    69    H   25  S      Val( 1S)     0.96352       0.08807

    70    H   26  S      Val( 1S)     0.96628       0.08198

    71    H   27  S      Val( 1S)     0.96091       0.08928

    72    H   28  S      Val( 1S)     0.96332       0.08089

    73    H   29  S      Val( 1S)     0.96713       0.07938

    74    H   30  S      Val( 1S)     0.96545       0.07933

    75    H   31  S      Val( 1S)     0.96357       0.07918


 Summary of Natural Population Analysis:                  
                                                          
                                       Natural Population 
                Natural  -----------------------------------------------
    Atom  No    Charge         Core      Valence    Rydberg      Total
 -----------------------------------------------------------------------
      C    1   -0.13026      1.99997     4.13029    0.00000     6.13026
      C    2    0.01576      1.99997     3.98427    0.00000     5.98424
      C    3    0.14514      1.99988     3.85498    0.00000     5.85486
      C    4   -0.06755      1.99995     4.06759    0.00000     6.06755
      C    5   -0.01072      1.99994     4.01078    0.00000     6.01072
      C    6   -0.06536      1.99996     4.06540    0.00000     6.06536
      C    7   -0.09415      1.99996     4.09419    0.00000     6.09415
      O    8   -0.33459      1.99999     6.33460    0.00000     8.33459
      C    9    0.02039      1.99995     3.97966    0.00000     5.97961
      C   10   -0.13334      1.99997     4.13338    0.00000     6.13334
      C   11   -0.12769      1.99997     4.12773    0.00000     6.12769
      H   12    0.03577      0.00000     0.96423    0.00000     0.96423
      H   13    0.03574      0.00000     0.96426    0.00000     0.96426
      H   14    0.03736      0.00000     0.96264    0.00000     0.96264
      H   15    0.02573      0.00000     0.97427    0.00000     0.97427
      H   16    0.00275      0.00000     0.99725    0.00000     0.99725
      H   17    0.02737      0.00000     0.97263    0.00000     0.97263
      H   18    0.03464      0.00000     0.96536    0.00000     0.96536
      H   19    0.02414      0.00000     0.97586    0.00000     0.97586
      H   20    0.02972      0.00000     0.97028    0.00000     0.97028
      H   21    0.02986      0.00000     0.97014    0.00000     0.97014
      H   22    0.02431      0.00000     0.97569    0.00000     0.97569
      H   23    0.03490      0.00000     0.96510    0.00000     0.96510
      H   24    0.19029      0.00000     0.80971    0.00000     0.80971
      H   25    0.03648      0.00000     0.96352    0.00000     0.96352
      H   26    0.03372      0.00000     0.96628    0.00000     0.96628
      H   27    0.03909      0.00000     0.96091    0.00000     0.96091
      H   28    0.03668      0.00000     0.96332    0.00000     0.96332
      H   29    0.03287      0.00000     0.96713    0.00000     0.96713
      H   30    0.03455      0.00000     0.96545    0.00000     0.96545
      H   31    0.03643      0.00000     0.96357    0.00000     0.96357
 =======================================================================
   * Total *    0.00000     21.99952    66.00048    0.00000    88.00000

                                 Natural Population      
 --------------------------------------------------------
   Core                      21.99952 ( 99.9978% of  22)
   Valence                   66.00048 (100.0007% of  66)
   Natural Minimal Basis     88.00000 (100.0000% of  88)
   Natural Rydberg Basis      0.00000 (  0.0000% of  88)
 --------------------------------------------------------

    Atom  No          Natural Electron Configuration
 ----------------------------------------------------------------------------
      C    1      [core]2S( 1.08)2p( 3.05)
      C    2      [core]2S( 1.08)2p( 2.91)
      C    3      [core]2S( 1.09)2p( 2.77)
      C    4      [core]2S( 1.08)2p( 2.98)
      C    5      [core]2S( 1.10)2p( 2.91)
      C    6      [core]2S( 1.08)2p( 2.98)
      C    7      [core]2S( 1.09)2p( 3.00)
      O    8      [core]2S( 1.75)2p( 4.59)
      C    9      [core]2S( 1.08)2p( 2.89)
      C   10      [core]2S( 1.08)2p( 3.06)
      C   11      [core]2S( 1.08)2p( 3.05)
      H   12            1S( 0.96)
      H   13            1S( 0.96)
      H   14            1S( 0.96)
      H   15            1S( 0.97)
      H   16            1S( 1.00)
      H   17            1S( 0.97)
      H   18            1S( 0.97)
      H   19            1S( 0.98)
      H   20            1S( 0.97)
      H   21            1S( 0.97)
      H   22            1S( 0.98)
      H   23            1S( 0.97)
      H   24            1S( 0.81)
      H   25            1S( 0.96)
      H   26            1S( 0.97)
      H   27            1S( 0.96)
      H   28            1S( 0.96)
      H   29            1S( 0.97)
      H   30            1S( 0.97)
      H   31            1S( 0.96)


 NATURAL BOND ORBITAL ANALYSIS:

                       Occupancies       Lewis Structure    Low   High
           Occ.    -------------------  -----------------   occ   occ
  Cycle   Thresh.   Lewis   Non-Lewis     CR  BD  3C  LP    (L)   (NL)   Dev
 =============================================================================
   1(1)    1.90    87.63323   0.36677     11  31   0   2     0      0    0.02
 -----------------------------------------------------------------------------

 Structure accepted: No low occupancy Lewis orbitals

 --------------------------------------------------------
   Core                     21.99952 ( 99.998% of  22)
   Valence Lewis            65.63371 ( 99.445% of  66)
  ==================       ============================
   Total Lewis              87.63323 ( 99.583% of  88)
  -----------------------------------------------------
   Valence non-Lewis         0.36677 (  0.417% of  88)
   Rydberg non-Lewis         0.00000 (  0.000% of  88)
  ==================       ============================
   Total non-Lewis           0.36677 (  0.417% of  88)
 --------------------------------------------------------


       (Occupancy)   Bond orbital/ Coefficients/ Hybrids
 ---------------------------------------------------------------------------------
     1. (1.99037) BD ( 1) C   1 - C   2  
                ( 50.97%)   0.7139* C   1 s( 25.83%)p 2.87( 74.17%)
                                            0.0001  0.5083 -0.6146  0.0237  0.6027
                ( 49.03%)   0.7002* C   2 s( 25.07%)p 2.99( 74.93%)
                                            0.0000  0.5007  0.5831 -0.0161 -0.6396
     2. (1.99503) BD ( 1) C   1 - H  12  
                ( 51.84%)   0.7200* C   1 s( 24.92%)p 3.01( 75.08%)
                                            0.0000  0.4992 -0.3520  0.1089 -0.7842
                ( 48.16%)   0.6939* H  12 s(100.00%)
                                            1.0000
     3. (1.99486) BD ( 1) C   1 - H  13  
                ( 51.79%)   0.7197* C   1 s( 24.60%)p 3.06( 75.40%)
                                            0.0000  0.4960  0.5766  0.6328  0.1448
                ( 48.21%)   0.6943* H  13 s(100.00%)
                                            1.0000
     4. (1.99484) BD ( 1) C   1 - H  14  
                ( 51.87%)   0.7202* C   1 s( 24.64%)p 3.06( 75.36%)
                                            0.0000  0.4964  0.4072 -0.7662  0.0268
                ( 48.13%)   0.6937* H  14 s(100.00%)
                                            1.0000
     5. (1.98504) BD ( 1) C   2 - C   6  
                ( 49.77%)   0.7055* C   2 s( 25.24%)p 2.96( 74.76%)
                                            0.0000  0.5024 -0.5756 -0.6348 -0.1156
                ( 50.23%)   0.7087* C   6 s( 25.42%)p 2.93( 74.58%)
                                            0.0001  0.5042  0.5665  0.6486  0.0650
     6. (1.98358) BD ( 1) C   2 - C   7  
                ( 49.29%)   0.7021* C   2 s( 25.15%)p 2.98( 74.85%)
                                            0.0000  0.5015 -0.4057  0.7641  0.0034
                ( 50.71%)   0.7121* C   7 s( 25.76%)p 2.88( 74.24%)
                                            0.0001  0.5075  0.3945 -0.7644 -0.0507
     7. (1.98442) BD ( 1) C   2 - H  15  
                ( 51.17%)   0.7154* C   2 s( 24.55%)p 3.07( 75.45%)
                                            0.0000  0.4955  0.4050 -0.1135  0.7600
                ( 48.83%)   0.6988* H  15 s(100.00%)
                                            1.0000
     8. (1.98125) BD ( 1) C   3 - C   5  
                ( 50.72%)   0.7122* C   3 s( 26.90%)p 2.72( 73.10%)
                                            0.0000  0.5187 -0.5774 -0.6234 -0.0948
                ( 49.28%)   0.7020* C   5 s( 25.34%)p 2.95( 74.66%)
                                            0.0000  0.5033  0.5449  0.6344  0.2175
     9. (1.98916) BD ( 1) C   3 - C   7  
                ( 49.22%)   0.7016* C   3 s( 25.85%)p 2.87( 74.15%)
                                            0.0001  0.5084  0.5101 -0.1524  0.6768
                ( 50.78%)   0.7126* C   7 s( 25.47%)p 2.93( 74.53%)
                                            0.0000  0.5047 -0.5358  0.1029 -0.6691
    10. (1.98796) BD ( 1) C   3 - O   8  
                ( 41.07%)   0.6408* C   3 s( 22.47%)p 3.45( 77.53%)
                                            0.0000  0.4740 -0.4195  0.7629  0.1319
                ( 58.93%)   0.7677* O   8 s( 16.59%)p 5.03( 83.41%)
                                            0.0000  0.4073  0.4886 -0.7644 -0.1054
    11. (1.98859) BD ( 1) C   3 - H  16  
                ( 50.41%)   0.7100* C   3 s( 24.79%)p 3.03( 75.21%)
                                            0.0000  0.4978  0.4800  0.0788 -0.7180
                ( 49.59%)   0.7042* H  16 s(100.00%)
                                            1.0000
    12. (1.98390) BD ( 1) C   4 - C   5  
                ( 50.36%)   0.7097* C   4 s( 25.66%)p 2.90( 74.34%)
                                            0.0001  0.5066 -0.3902  0.7687  0.0148
                ( 49.64%)   0.7045* C   5 s( 25.87%)p 2.87( 74.13%)
                                            0.0000  0.5086  0.3853 -0.7649  0.0886
    13. (1.99100) BD ( 1) C   4 - C   6  
                ( 49.96%)   0.7068* C   4 s( 25.38%)p 2.94( 74.62%)
                                            0.0000  0.5038  0.5242 -0.0790  0.6820
                ( 50.04%)   0.7074* C   6 s( 25.52%)p 2.92( 74.48%)
                                            0.0000  0.5051 -0.5288  0.1362 -0.6683
    14. (1.98991) BD ( 1) C   4 - H  17  
                ( 51.35%)   0.7166* C   4 s( 23.88%)p 3.19( 76.12%)
                                            0.0000  0.4887  0.4711 -0.0688 -0.7311
                ( 48.65%)   0.6975* H  17 s(100.00%)
                                            1.0000
    15. (1.98865) BD ( 1) C   4 - H  18  
                ( 51.71%)   0.7191* C   4 s( 25.08%)p 2.99( 74.92%)
                                            0.0000  0.5008 -0.5924 -0.6310  0.0124
                ( 48.29%)   0.6949* H  18 s(100.00%)
                                            1.0000
    16. (1.97997) BD ( 1) C   5 - C   9  
                ( 50.43%)   0.7101* C   5 s( 25.74%)p 2.89( 74.26%)
                                            0.0001  0.5073 -0.7079  0.0375  0.4899
                ( 49.57%)   0.7041* C   9 s( 25.53%)p 2.92( 74.47%)
                                            0.0001  0.5053  0.7708 -0.0860 -0.3784
    17. (1.98316) BD ( 1) C   5 - H  19  
                ( 51.03%)   0.7143* C   5 s( 23.05%)p 3.34( 76.95%)
                                            0.0000  0.4801 -0.2313  0.1056 -0.8395
                ( 48.97%)   0.6998* H  19 s(100.00%)
                                            1.0000
    18. (1.98932) BD ( 1) C   6 - H  20  
                ( 51.45%)   0.7173* C   6 s( 24.65%)p 3.06( 75.35%)
                                            0.0000  0.4965  0.4267 -0.7471 -0.1147
                ( 48.55%)   0.6968* H  20 s(100.00%)
                                            1.0000
    19. (1.98976) BD ( 1) C   6 - H  21  
                ( 51.51%)   0.7177* C   6 s( 24.41%)p 3.10( 75.59%)
                                            0.0000  0.4941 -0.4662 -0.0503  0.7321
                ( 48.49%)   0.6964* H  21 s(100.00%)
                                            1.0000
    20. (1.98840) BD ( 1) C   7 - H  22  
                ( 51.18%)   0.7154* C   7 s( 24.37%)p 3.10( 75.63%)
                                            0.0000  0.4937  0.5943  0.6349 -0.0058
                ( 48.82%)   0.6987* H  22 s(100.00%)
                                            1.0000
    21. (1.98845) BD ( 1) C   7 - H  23  
                ( 51.74%)   0.7193* C   7 s( 24.40%)p 3.10( 75.60%)
                                            0.0000  0.4940 -0.4519  0.0456  0.7414
                ( 48.26%)   0.6947* H  23 s(100.00%)
                                            1.0000
    22. (1.98869) BD ( 1) O   8 - H  24  
                ( 59.51%)   0.7714* O   8 s( 16.83%)p 4.94( 83.17%)
                                            0.0000  0.4103  0.6568  0.6240  0.1045
                ( 40.49%)   0.6364* H  24 s(100.00%)
                                            1.0000
    23. (1.99063) BD ( 1) C   9 - C  10  
                ( 48.90%)   0.6993* C   9 s( 25.47%)p 2.93( 74.53%)
                                            0.0000  0.5047  0.0722 -0.1298  0.8504
                ( 51.10%)   0.7148* C  10 s( 26.00%)p 2.85( 74.00%)
                                            0.0001  0.5099 -0.0165  0.1023 -0.8540
    24. (1.98850) BD ( 1) C   9 - C  11  
                ( 48.85%)   0.6989* C   9 s( 24.72%)p 3.05( 75.28%)
                                            0.0000  0.4972 -0.5551 -0.5761 -0.3359
                ( 51.15%)   0.7152* C  11 s( 25.78%)p 2.88( 74.22%)
                                            0.0001  0.5078  0.5955  0.5319  0.3234
    25. (1.98336) BD ( 1) C   9 - H  25  
                ( 51.70%)   0.7190* C   9 s( 24.28%)p 3.12( 75.72%)
                                            0.0000  0.4927 -0.3042  0.8024 -0.1441
                ( 48.30%)   0.6950* H  25 s(100.00%)
                                            1.0000
    26. (1.99437) BD ( 1) C  10 - H  26  
                ( 51.73%)   0.7193* C  10 s( 24.87%)p 3.02( 75.13%)
                                            0.0000  0.4987  0.2654 -0.8013  0.1967
                ( 48.27%)   0.6947* H  26 s(100.00%)
                                            1.0000
    27. (1.99392) BD ( 1) C  10 - H  27  
                ( 51.98%)   0.7210* C  10 s( 24.97%)p 3.00( 75.03%)
                                            0.0000  0.4997  0.5384  0.5770  0.3571
                ( 48.02%)   0.6929* H  27 s(100.00%)
                                            1.0000
    28. (1.99407) BD ( 1) C  10 - H  28  
                ( 51.82%)   0.7199* C  10 s( 24.16%)p 3.14( 75.84%)
                                            0.0000  0.4915 -0.7996  0.1204  0.3233
                ( 48.18%)   0.6941* H  28 s(100.00%)
                                            1.0000
    29. (1.99495) BD ( 1) C  11 - H  29  
                ( 51.70%)   0.7190* C  11 s( 24.84%)p 3.02( 75.16%)
                                            0.0000  0.4984  0.2022 -0.8203  0.1942
                ( 48.30%)   0.6950* H  29 s(100.00%)
                                            1.0000
    30. (1.99518) BD ( 1) C  11 - H  30  
                ( 51.75%)   0.7194* C  11 s( 24.75%)p 3.04( 75.25%)
                                            0.0000  0.4974 -0.0357  0.0893 -0.8621
                ( 48.25%)   0.6946* H  30 s(100.00%)
                                            1.0000
    31. (1.99449) BD ( 1) C  11 - H  31  
                ( 51.81%)   0.7198* C  11 s( 24.63%)p 3.06( 75.37%)
                                            0.0000  0.4963 -0.7767  0.1902  0.3382
                ( 48.19%)   0.6942* H  31 s(100.00%)
                                            1.0000
    32. (1.99997) CR ( 1) C   1           s(100.00%)
                                            1.0000  0.0000  0.0001  0.0000  0.0000
    33. (1.99997) CR ( 1) C   2           s(100.00%)
                                            1.0000  0.0000  0.0000  0.0000  0.0000
    34. (1.99988) CR ( 1) C   3           s(100.00%)
                                            1.0000  0.0000  0.0000  0.0001  0.0000
    35. (1.99995) CR ( 1) C   4           s(100.00%)
                                            1.0000  0.0000  0.0000 -0.0001  0.0000
    36. (1.99994) CR ( 1) C   5           s(100.00%)
                                            1.0000 -0.0001  0.0000  0.0000 -0.0001
    37. (1.99996) CR ( 1) C   6           s(100.00%)
                                            1.0000  0.0000  0.0000 -0.0001  0.0000
    38. (1.99996) CR ( 1) C   7           s(100.00%)
                                            1.0000  0.0000  0.0000  0.0001  0.0000
    39. (1.99999) CR ( 1) O   8           s(100.00%)
                                            1.0000  0.0000  0.0000  0.0000  0.0000
    40. (1.99995) CR ( 1) C   9           s(100.00%)
                                            1.0000  0.0000 -0.0001  0.0000  0.0000
    41. (1.99997) CR ( 1) C  10           s(100.00%)
                                            1.0000  0.0000  0.0000  0.0000  0.0001
    42. (1.99997) CR ( 1) C  11           s(100.00%)
                                            1.0000  0.0000 -0.0001  0.0000  0.0000
    43. (1.99198) LP ( 1) O   8           s( 66.42%)p 0.51( 33.58%)
                                            0.0000  0.8150 -0.5743  0.0606  0.0481
    44. (1.97599) LP ( 2) O   8           s(  0.16%)p99.99( 99.84%)
                                            0.0000  0.0397 -0.0107  0.1505 -0.9878
    45. (0.01138) BD*( 1) C   1 - C   2  
                ( 49.03%)   0.7002* C   1 s( 25.83%)p 2.87( 74.17%)
                                           -0.0001 -0.5083  0.6146 -0.0237 -0.6027
                ( 50.97%)  -0.7139* C   2 s( 25.07%)p 2.99( 74.93%)
                                            0.0000 -0.5007 -0.5831  0.0161  0.6396
    46. (0.00678) BD*( 1) C   1 - H  12  
                ( 48.16%)   0.6939* C   1 s( 24.92%)p 3.01( 75.08%)
                                            0.0000 -0.4992  0.3520 -0.1089  0.7842
                ( 51.84%)  -0.7200* H  12 s(100.00%)
                                           -1.0000
    47. (0.00497) BD*( 1) C   1 - H  13  
                ( 48.21%)   0.6943* C   1 s( 24.60%)p 3.06( 75.40%)
                                            0.0000 -0.4960 -0.5766 -0.6328 -0.1448
                ( 51.79%)  -0.7197* H  13 s(100.00%)
                                           -1.0000
    48. (0.00494) BD*( 1) C   1 - H  14  
                ( 48.13%)   0.6937* C   1 s( 24.64%)p 3.06( 75.36%)
                                            0.0000 -0.4964 -0.4072  0.7662 -0.0268
                ( 51.87%)  -0.7202* H  14 s(100.00%)
                                           -1.0000
    49. (0.01632) BD*( 1) C   2 - C   6  
                ( 50.23%)   0.7087* C   2 s( 25.24%)p 2.96( 74.76%)
                                            0.0000  0.5024 -0.5756 -0.6348 -0.1156
                ( 49.77%)  -0.7055* C   6 s( 25.42%)p 2.93( 74.58%)
                                            0.0001  0.5042  0.5665  0.6486  0.0650
    50. (0.01579) BD*( 1) C   2 - C   7  
                ( 50.71%)   0.7121* C   2 s( 25.15%)p 2.98( 74.85%)
                                            0.0000  0.5015 -0.4057  0.7641  0.0034
                ( 49.29%)  -0.7021* C   7 s( 25.76%)p 2.88( 74.24%)
                                            0.0001  0.5075  0.3945 -0.7644 -0.0507
    51. (0.01043) BD*( 1) C   2 - H  15  
                ( 48.83%)   0.6988* C   2 s( 24.55%)p 3.07( 75.45%)
                                            0.0000 -0.4955 -0.4050  0.1135 -0.7600
                ( 51.17%)  -0.7154* H  15 s(100.00%)
                                           -1.0000
    52. (0.02880) BD*( 1) C   3 - C   5  
                ( 49.28%)   0.7020* C   3 s( 26.90%)p 2.72( 73.10%)
                                            0.0000 -0.5187  0.5774  0.6234  0.0948
                ( 50.72%)  -0.7122* C   5 s( 25.34%)p 2.95( 74.66%)
                                            0.0000 -0.5033 -0.5449 -0.6344 -0.2175
    53. (0.02859) BD*( 1) C   3 - C   7  
                ( 50.78%)   0.7126* C   3 s( 25.85%)p 2.87( 74.15%)
                                            0.0001  0.5084  0.5101 -0.1524  0.6768
                ( 49.22%)  -0.7016* C   7 s( 25.47%)p 2.93( 74.53%)
                                            0.0000  0.5047 -0.5358  0.1029 -0.6691
    54. (0.02117) BD*( 1) C   3 - O   8  
                ( 58.93%)   0.7677* C   3 s( 22.47%)p 3.45( 77.53%)
                                            0.0000  0.4740 -0.4195  0.7629  0.1319
                ( 41.07%)  -0.6408* O   8 s( 16.59%)p 5.03( 83.41%)
                                            0.0000  0.4073  0.4886 -0.7644 -0.1054
    55. (0.02205) BD*( 1) C   3 - H  16  
                ( 49.59%)   0.7042* C   3 s( 24.79%)p 3.03( 75.21%)
                                            0.0000 -0.4978 -0.4800 -0.0788  0.7180
                ( 50.41%)  -0.7100* H  16 s(100.00%)
                                           -1.0000
    56. (0.01681) BD*( 1) C   4 - C   5  
                ( 49.64%)   0.7045* C   4 s( 25.66%)p 2.90( 74.34%)
                                           -0.0001 -0.5066  0.3902 -0.7687 -0.0148
                ( 50.36%)  -0.7097* C   5 s( 25.87%)p 2.87( 74.13%)
                                            0.0000 -0.5086 -0.3853  0.7649 -0.0886
    57. (0.01285) BD*( 1) C   4 - C   6  
                ( 50.04%)   0.7074* C   4 s( 25.38%)p 2.94( 74.62%)
                                            0.0000  0.5038  0.5242 -0.0790  0.6820
                ( 49.96%)  -0.7068* C   6 s( 25.52%)p 2.92( 74.48%)
                                            0.0000  0.5051 -0.5288  0.1362 -0.6683
    58. (0.00867) BD*( 1) C   4 - H  17  
                ( 48.65%)   0.6975* C   4 s( 23.88%)p 3.19( 76.12%)
                                            0.0000 -0.4887 -0.4711  0.0688  0.7311
                ( 51.35%)  -0.7166* H  17 s(100.00%)
                                           -1.0000
    59. (0.00967) BD*( 1) C   4 - H  18  
                ( 48.29%)   0.6949* C   4 s( 25.08%)p 2.99( 74.92%)
                                            0.0000 -0.5008  0.5924  0.6310 -0.0124
                ( 51.71%)  -0.7191* H  18 s(100.00%)
                                           -1.0000
    60. (0.02356) BD*( 1) C   5 - C   9  
                ( 49.57%)   0.7041* C   5 s( 25.74%)p 2.89( 74.26%)
                                           -0.0001 -0.5073  0.7079 -0.0375 -0.4899
                ( 50.43%)  -0.7101* C   9 s( 25.53%)p 2.92( 74.47%)
                                           -0.0001 -0.5053 -0.7708  0.0860  0.3784
    61. (0.00921) BD*( 1) C   5 - H  19  
                ( 48.97%)   0.6998* C   5 s( 23.05%)p 3.34( 76.95%)
                                            0.0000 -0.4801  0.2313 -0.1056  0.8395
                ( 51.03%)  -0.7143* H  19 s(100.00%)
                                           -1.0000
    62. (0.00865) BD*( 1) C   6 - H  20  
                ( 48.55%)   0.6968* C   6 s( 24.65%)p 3.06( 75.35%)
                                            0.0000 -0.4965 -0.4267  0.7471  0.1147
                ( 51.45%)  -0.7173* H  20 s(100.00%)
                                           -1.0000
    63. (0.01024) BD*( 1) C   6 - H  21  
                ( 48.49%)   0.6964* C   6 s( 24.41%)p 3.10( 75.59%)
                                            0.0000 -0.4941  0.4662  0.0503 -0.7321
                ( 51.51%)  -0.7177* H  21 s(100.00%)
                                           -1.0000
    64. (0.00975) BD*( 1) C   7 - H  22  
                ( 48.82%)   0.6987* C   7 s( 24.37%)p 3.10( 75.63%)
                                            0.0000 -0.4937 -0.5943 -0.6349  0.0058
                ( 51.18%)  -0.7154* H  22 s(100.00%)
                                           -1.0000
    65. (0.01064) BD*( 1) C   7 - H  23  
                ( 48.26%)   0.6947* C   7 s( 24.40%)p 3.10( 75.60%)
                                            0.0000 -0.4940  0.4519 -0.0456 -0.7414
                ( 51.74%)  -0.7193* H  23 s(100.00%)
                                           -1.0000
    66. (0.00740) BD*( 1) O   8 - H  24  
                ( 40.49%)   0.6364* O   8 s( 16.83%)p 4.94( 83.17%)
                                            0.0000 -0.4103 -0.6568 -0.6240 -0.1045
                ( 59.51%)  -0.7714* H  24 s(100.00%)
                                           -1.0000
    67. (0.01106) BD*( 1) C   9 - C  10  
                ( 51.10%)   0.7148* C   9 s( 25.47%)p 2.93( 74.53%)
                                            0.0000  0.5047  0.0722 -0.1298  0.8504
                ( 48.90%)  -0.6993* C  10 s( 26.00%)p 2.85( 74.00%)
                                            0.0001  0.5099 -0.0165  0.1023 -0.8540
    68. (0.01026) BD*( 1) C   9 - C  11  
                ( 51.15%)   0.7152* C   9 s( 24.72%)p 3.05( 75.28%)
                                            0.0000  0.4972 -0.5551 -0.5761 -0.3359
                ( 48.85%)  -0.6989* C  11 s( 25.78%)p 2.88( 74.22%)
                                            0.0001  0.5078  0.5955  0.5319  0.3234
    69. (0.01080) BD*( 1) C   9 - H  25  
                ( 48.30%)   0.6950* C   9 s( 24.28%)p 3.12( 75.72%)
                                            0.0000 -0.4927  0.3042 -0.8024  0.1441
                ( 51.70%)  -0.7190* H  25 s(100.00%)
                                           -1.0000
    70. (0.00706) BD*( 1) C  10 - H  26  
                ( 48.27%)   0.6947* C  10 s( 24.87%)p 3.02( 75.13%)
                                            0.0000 -0.4987 -0.2654  0.8013 -0.1967
                ( 51.73%)  -0.7193* H  26 s(100.00%)
                                           -1.0000
    71. (0.00674) BD*( 1) C  10 - H  27  
                ( 48.02%)   0.6929* C  10 s( 24.97%)p 3.00( 75.03%)
                                            0.0000 -0.4997 -0.5384 -0.5770 -0.3571
                ( 51.98%)  -0.7210* H  27 s(100.00%)
                                           -1.0000
    72. (0.00510) BD*( 1) C  10 - H  28  
                ( 48.18%)   0.6941* C  10 s( 24.16%)p 3.14( 75.84%)
                                            0.0000 -0.4915  0.7996 -0.1204 -0.3233
[...]
   22      18.4552        9.9103       8.5449         4.0034      14.4518
   39     271.1693       -0.0057     271.1750        -0.0039     271.1732
   43      34.7531       -1.0086      35.7617        -2.6742      37.4273
   44       5.9442      -32.7813      38.7255       -34.0456      39.9898
 Sum      356.5414      -16.7320     373.2733       -22.0575     378.5988

 Contributions to Isotropic shielding for atom    9 (   214.9833 ppm):
                         Standard Origin              Atomic Origin
 NLMO      Total    Paramagnetic  Diamagnetic   Paramagnetic  Diamagnetic
   10       0.1131       -0.5686       0.6817        -1.3479       1.4611
   16       5.3739       -8.2871      13.6610        -2.2723       7.6463
   17       0.4735        0.1397       0.3339        -0.5677       1.0412
   23       0.0186       -7.0280       7.0466        -7.4533       7.4718
   24      -1.9059       -3.9801       2.0742        -9.3159       7.4099
   25       6.2051       -1.1430       7.3481        -4.9238      11.1289
   26       0.7782       -0.2760       1.0543        -0.2567       1.0350
   27       0.5625       -0.5378       1.1002        -0.4592       1.0216
   28       0.5924       -0.1103       0.7027        -0.4264       1.0188
   29       1.1770       -0.2034       1.3804         0.1707       1.0063
   30       0.7397       -0.5736       1.3133        -0.2858       1.0255
   31       0.6031       -0.4355       1.0386        -0.4199       1.0231
   40     199.9200       -0.0020     199.9221         0.0025     199.9175
 Sum      214.6513      -23.0057     237.6570       -27.5557     242.2071

 Contributions to Isotropic shielding for atom   10 (   223.0712 ppm):
                         Standard Origin              Atomic Origin
 NLMO      Total    Paramagnetic  Diamagnetic   Paramagnetic  Diamagnetic
   10       0.0899       -0.3345       0.4243        -0.9816       1.0715
   23       3.2773       -8.9435      12.2207        -4.7327       8.0100
   24      -0.3260       -0.0339      -0.2921        -1.0281       0.7021
   25       0.3676       -0.1367       0.5043        -0.6667       1.0342
   26       6.7870       -4.2458      11.0328        -4.2889      11.0759
   27       6.7653       -5.6608      12.4261        -4.4004      11.1657
   28       5.8341        2.5786       3.2554        -5.2118      11.0459
   41     200.0796       -0.0017     200.0813         0.0011     200.0784
 Sum      222.8746      -16.7782     239.6528       -21.3091     244.1837

 Contributions to Isotropic shielding for atom   11 (   220.5736 ppm):
                         Standard Origin              Atomic Origin
 NLMO      Total    Paramagnetic  Diamagnetic   Paramagnetic  Diamagnetic
   17      -0.1471       -0.0738      -0.0733        -1.0499       0.9028
   23      -0.5327        0.0194      -0.5521        -1.2467       0.7140
   24       4.6164      -11.9240      16.5404        -3.4735       8.0898
   25       0.3445        0.2161       0.1284        -0.7183       1.0628
   28      -0.0920       -0.3607       0.2687        -1.0076       0.9156
   29       6.1114       -4.1986      10.3100        -4.9768      11.0882
   30       4.9830       -3.3684       8.3514        -6.1097      11.0928
   31       5.0167        1.9958       3.0209        -6.0857      11.1024
   42     200.0744       -0.0040     200.0784         0.0023     200.0720
 Sum      220.3746      -17.6982     238.0729       -24.6658     245.0404

 Contributions to Isotropic shielding for atom   12 (    32.6104 ppm):
                         Standard Origin              Atomic Origin
 NLMO      Total    Paramagnetic  Diamagnetic   Paramagnetic  Diamagnetic
    1       1.6139       -1.3510       2.9649         0.7173       0.8966
    2      26.3116        0.3248      25.9868         0.3739      25.9377
    3       1.9578        1.2257       0.7321         0.1215       1.8363
    4       1.9585        1.3237       0.6348         0.1161       1.8424
 Sum       31.8418        1.5232      30.3185         1.3287      30.5130

 Contributions to Isotropic shielding for atom   13 (    32.6900 ppm):
                         Standard Origin              Atomic Origin
 NLMO      Total    Paramagnetic  Diamagnetic   Paramagnetic  Diamagnetic
    1       1.3869        0.0549       1.3321         0.3571       1.0298
    2       2.0609        0.9570       1.1039         0.2070       1.8539
    3      26.3687        0.1142      26.2545         0.4240      25.9447
    4       1.9202        2.4060      -0.4858         0.0771       1.8431
 Sum       31.7367        3.5320      28.2047         1.0652      30.6715

 Contributions to Isotropic shielding for atom   14 (    32.6311 ppm):
                         Standard Origin              Atomic Origin
 NLMO      Total    Paramagnetic  Diamagnetic   Paramagnetic  Diamagnetic
    1       1.3573        0.1344       1.2229         0.3223       1.0350
    2       2.0551        1.0246       1.0305         0.2012       1.8540
    3       1.9208        2.3824      -0.4615         0.0828       1.8380
    4      26.3323        0.1021      26.2301         0.4314      25.9008
 Sum       31.6655        3.6435      28.0220         1.0377      30.6278

 Contributions to Isotropic shielding for atom   15 (    32.4391 ppm):
                         Standard Origin              Atomic Origin
 NLMO      Total    Paramagnetic  Diamagnetic   Paramagnetic  Diamagnetic
    1       0.7611        2.2788      -1.5177        -0.2524       1.0136
    5       1.3173        0.9210       0.3963         0.3352       0.9821
    6       1.3296        0.8410       0.4885         0.3830       0.9465
    7      26.4882       -0.2022      26.6903         0.4652      26.0230
   19       0.1332       -0.0254       0.1586        -0.9017       1.0349
   21       0.1216        0.0276       0.0940        -0.9137       1.0354
 Sum       30.1510        3.8409      26.3101        -0.8845      31.0355

 Contributions to Isotropic shielding for atom   16 (    31.8987 ppm):
                         Standard Origin              Atomic Origin
 NLMO      Total    Paramagnetic  Diamagnetic   Paramagnetic  Diamagnetic
    2      -0.3156       -1.1363       0.8207        -0.8681       0.5524
    8       1.1291        0.1187       1.0104        -0.1486       1.2778
    9       0.7180        0.5528       0.1652        -0.2867       1.0047
   10       0.5490        1.3625      -0.8135        -1.0875       1.6364
   11      26.8170        0.2041      26.6129         0.7093      26.1077
   17      -0.0472       -0.3290       0.2818        -1.0948       1.0476
   22       0.3483       -0.7373       1.0856        -0.6056       0.9539
 Sum       29.1987        0.0355      29.1632        -3.3819      32.5806

 Contributions to Isotropic shielding for atom   17 (    32.6268 ppm):
                         Standard Origin              Atomic Origin
 NLMO      Total    Paramagnetic  Diamagnetic   Paramagnetic  Diamagnetic
    2      -0.3152       -1.0779       0.7628        -0.8695       0.5544
   12       1.3917        0.4457       0.9459         0.3133       1.0784
   13       1.0723        0.9811       0.0911         0.0353       1.0370
   14      26.4644       -0.0213      26.4856         0.3921      26.0722
   15       2.0580        1.6372       0.4208         0.2112       1.8467
   17      -0.0412       -0.2337       0.1925        -1.0564       1.0152
 Sum       30.6300        1.7313      28.8987        -0.9740      31.6039

 Contributions to Isotropic shielding for atom   18 (    32.4390 ppm):
                         Standard Origin              Atomic Origin
 NLMO      Total    Paramagnetic  Diamagnetic   Paramagnetic  Diamagnetic
   12       1.2888        0.4316       0.8572         0.3456       0.9432
   13       1.1057        1.0680       0.0378         0.0521       1.0537
   14       2.0652        1.6335       0.4318         0.2933       1.7719
   15      26.2939        0.0287      26.2653         0.4232      25.8708
   16      -0.1318        0.0326      -0.1644        -1.0859       0.9541
   24      -0.0295       -0.5833       0.5538        -1.0129       0.9834
   29      -0.3440       -1.6077       1.2638        -0.9829       0.6390
 Sum       30.2485        1.0034      29.2451        -1.9675      32.2160

 Contributions to Isotropic shielding for atom   19 (    32.0534 ppm):
                         Standard Origin              Atomic Origin
 NLMO      Total    Paramagnetic  Diamagnetic   Paramagnetic  Diamagnetic
    8       1.1807        1.1034       0.0773         0.0485       1.1323
   10       0.1588       -0.2355       0.3944        -1.1314       1.2902
   11      -0.0472       -0.4995       0.4523        -1.1298       1.0825
   12       1.1755        1.0752       0.1003        -0.0232       1.1987
   14       0.0312       -0.4974       0.5286        -1.0998       1.1310
   16       1.0486        1.3798      -0.3312        -0.3225       1.3711
   17      26.4860       -0.2356      26.7216         0.4401      26.0459
   24      -0.0421       -0.3549       0.3128        -1.0171       0.9750
   30      -0.1515       -1.6206       1.4691        -1.0423       0.8907
 Sum       29.8400        0.1149      29.7251        -5.2775      35.1175

 Contributions to Isotropic shielding for atom   20 (    32.6530 ppm):
                         Standard Origin              Atomic Origin
 NLMO      Total    Paramagnetic  Diamagnetic   Paramagnetic  Diamagnetic
    1      -0.0889       -0.0430      -0.0459        -1.0650       0.9761
    4      -0.0964       -1.2403       1.1439        -0.9931       0.8967
    5       1.0317        1.3992      -0.3675         0.1181       0.9136
   13       1.1938        0.9260       0.2678         0.1621       1.0317
   14       0.1807        0.0973       0.0833        -0.8533       1.0340
   18      26.4677       -0.0376      26.5053         0.4761      25.9916
   19       2.1235        1.4464       0.6771         0.3601       1.7635
 Sum       30.8121        2.5481      28.2640        -1.7950      32.6072

 Contributions to Isotropic shielding for atom   21 (    32.6206 ppm):
                         Standard Origin              Atomic Origin
 NLMO      Total    Paramagnetic  Diamagnetic   Paramagnetic  Diamagnetic
    5       1.2994        0.4957       0.8037         0.3130       0.9864
   13       1.3986        0.0083       1.3903         0.4218       0.9768
   18       1.9661        1.7504       0.2157         0.1618       1.8044
   19      26.4345        0.1798      26.2547         0.4041      26.0305
   26      -0.4236       -1.1728       0.7492        -0.8083       0.3848
 Sum       30.6751        1.2615      29.4137         0.4923      30.1828

 Contributions to Isotropic shielding for atom   22 (    32.9777 ppm):
                         Standard Origin              Atomic Origin
 NLMO      Total    Paramagnetic  Diamagnetic   Paramagnetic  Diamagnetic
    1      -0.0729       -0.1303       0.0574        -1.0446       0.9716
    3      -0.0969       -1.2713       1.1744        -0.9911       0.8943
    6       1.0406        1.3897      -0.3491         0.1014       0.9393
    9       1.2366        0.8638       0.3727         0.3153       0.9213
   10      -0.1773        0.3120      -0.4893        -1.2692       1.0919
   20      26.5860       -0.0096      26.5956         0.4544      26.1316
   21       2.0904        1.4226       0.6678         0.2319       1.8585
   22      -0.0225       -1.1193       1.0968        -0.6882       0.6657
 Sum       30.5840        1.4576      29.1263        -2.8903      33.4742

 Contributions to Isotropic shielding for atom   23 (    32.3664 ppm):
                         Standard Origin              Atomic Origin
 NLMO      Total    Paramagnetic  Diamagnetic   Paramagnetic  Diamagnetic
    6       1.2150        0.4898       0.7252         0.2185       0.9965
    9       1.4270        0.0942       1.3328         0.5311       0.8959
   10      -0.0453       -0.2405       0.1953        -1.3268       1.2815
   20       1.9355        1.5903       0.3452         0.0765       1.8590
   21      26.3053        0.1877      26.1176         0.4084      25.8969
   27      -0.4986       -1.0560       0.5574        -0.5661       0.0675
 Sum       30.3389        1.0654      29.2735        -0.6584      30.9973

 Contributions to Isotropic shielding for atom   24 (    35.0633 ppm):
                         Standard Origin              Atomic Origin
 NLMO      Total    Paramagnetic  Diamagnetic   Paramagnetic  Diamagnetic
    9      -0.2236        0.3555      -0.5792        -1.2796       1.0560
   10       1.3780        2.2719      -0.8939         0.6786       0.6994
   11       0.1776        0.3455      -0.1679        -0.8311       1.0086
   20      -0.0557       -0.4250       0.3693        -1.0033       0.9476
   22      23.0629       -0.5142      23.5771        -0.0865      23.1494
   43       4.2253        0.8127       3.4125         2.2865       1.9388
   44       5.6042        2.4690       3.1352         2.4358       3.1684
 Sum       34.1686        5.3154      28.8532         2.2004      31.9682

 Contributions to Isotropic shielding for atom   25 (    31.7420 ppm):
                         Standard Origin              Atomic Origin
 NLMO      Total    Paramagnetic  Diamagnetic   Paramagnetic  Diamagnetic
   10       0.1957       -0.5890       0.7847        -1.1848       1.3805
   16       1.5222        0.1076       1.4146         0.4473       1.0749
   23       1.0280        1.2138      -0.1858        -0.0145       1.0425
   24       0.7567        2.0952      -1.3385        -0.3031       1.0597
   25      26.1383       -0.1126      26.2509         0.4248      25.7135
   31       0.1986       -0.7582       0.9567        -0.8175       1.0160
   43      -0.8771        0.0498      -0.9269         0.4574      -1.3345
 Sum       28.9624        2.0066      26.9557        -0.9903      29.9527

 Contributions to Isotropic shielding for atom   26 (    32.8207 ppm):
                         Standard Origin              Atomic Origin
 NLMO      Total    Paramagnetic  Diamagnetic   Paramagnetic  Diamagnetic
   23       1.4023       -0.2802       1.6825         0.4688       0.9335
   26      26.4038        0.2510      26.1528         0.3836      26.0203
   27       2.1639        0.3445       1.8195         0.3788       1.7852
   28       2.0100        1.9281       0.0819         0.1567       1.8534
 Sum       31.9801        2.2434      29.7367         1.3878      30.5923

 Contributions to Isotropic shielding for atom   27 (    32.4583 ppm):
                         Standard Origin              Atomic Origin
 NLMO      Total    Paramagnetic  Diamagnetic   Paramagnetic  Diamagnetic
   10       0.0883       -0.3845       0.4729        -1.0807       1.1691
   23       1.4765       -0.5463       2.0228         0.4516       1.0249
   26       2.1426        0.3967       1.7459         0.3502       1.7924
   27      26.2934        0.2987      25.9947         0.3814      25.9120
   28       1.9780        1.6816       0.2964         0.0949       1.8831
 Sum       31.9787        1.4461      30.5326         0.1972      31.7815

 Contributions to Isotropic shielding for atom   28 (    32.5094 ppm):
                         Standard Origin              Atomic Origin
 NLMO      Total    Paramagnetic  Diamagnetic   Paramagnetic  Diamagnetic
   23       1.1515        0.9358       0.2157         0.1286       1.0229
   24      -0.1208        0.3912      -0.5119        -1.1324       1.0116
   26       2.0008        1.5592       0.4416         0.1334       1.8674
   27       2.0525        1.3479       0.7046         0.1624       1.8902
   28      26.3556       -0.0154      26.3711         0.4107      25.9450
   31      -0.1004       -1.0846       0.9842        -0.9946       0.8942
 Sum       31.3392        3.1339      28.2053        -1.2919      32.6311

 Contributions to Isotropic shielding for atom   29 (    32.5256 ppm):
                         Standard Origin              Atomic Origin
 NLMO      Total    Paramagnetic  Diamagnetic   Paramagnetic  Diamagnetic
   12      -0.0954        0.1341      -0.2295        -1.0994       1.0040
   23      -0.1611        0.3360      -0.4971        -1.0729       0.9117
   24       1.5496       -1.1315       2.6811         0.6205       0.9291
   29      26.4086        0.2709      26.1378         0.4140      25.9947
   30       1.9748        1.0254       0.9495         0.1641       1.8108
   31       1.8993        1.9677      -0.0684         0.0444       1.8549
 Sum       31.5758        2.6026      28.9732        -0.9293      32.5051

 Contributions to Isotropic shielding for atom   30 (    32.5234 ppm):
                         Standard Origin              Atomic Origin
 NLMO      Total    Paramagnetic  Diamagnetic   Paramagnetic  Diamagnetic
   16      -0.0417        0.2518      -0.2935        -1.0124       0.9707
   24       1.5472       -0.7326       2.2798         0.5287       1.0185
   29       2.0094        0.9700       1.0395         0.1919       1.8176
   30      26.3964        0.2496      26.1467         0.4439      25.9525
   31       1.9021        2.2489      -0.3468         0.0548       1.8474
 Sum       31.8134        2.9877      28.8257         0.2067      31.6067

 Contributions to Isotropic shielding for atom   31 (    32.3627 ppm):
                         Standard Origin              Atomic Origin
 NLMO      Total    Paramagnetic  Diamagnetic   Paramagnetic  Diamagnetic
   23      -0.1520        0.6876      -0.8396        -1.0886       0.9366
   24       1.3474        0.0925       1.2548         0.3045       1.0428
   29       1.9351        1.6464       0.2886         0.0785       1.8566
   30       1.8865        1.9627      -0.0762         0.0344       1.8521
   31      26.3555        0.0233      26.3322         0.4374      25.9181
 Sum       31.3724        4.4126      26.9598        -0.2337      31.6061
 
 1\1\GINC-COMPUTE-10-4\SP\RHF\STO-3G\C10H20O1\YTSAI.IQUIR\03-Aug-2021\0
 \\# rhf/STO-3G nmr pop=nbo\\comment\\0,1\C,0,1.307686911,1.480314677,-
 2.475452474\C,0,0.30556102,0.391092432,-2.083141496\C,0,1.415252838,-0
 .422358569,0.072627531\C,0,-0.437077832,1.32512606,0.179787344\C,0,0.3
 16969252,0.224049714,0.95258721\C,0,-0.845973897,0.951543732,-1.244469
 619\C,0,0.983663674,-0.769592727,-1.353277276\O,0,1.94750335,-1.583170
 907,0.704250825\C,0,-0.577779371,-0.77035923,1.761356997\C,0,-1.523108
 725,-1.644211223,0.94176266\C,0,-1.386176772,-0.046647056,2.849797171\
 H,0,1.789809122,1.93840314,-1.60711836\H,0,2.094782497,1.065772,-3.114
 439754\H,0,0.808846108,2.27608713,-3.038979147\H,0,-0.117654069,0.0001
 79095,-3.01780199\H,0,2.244306902,0.293933718,0.008606452\H,0,0.218036
 909,2.204685347,0.124168562\H,0,-1.320909742,1.663023831,0.729175626\H
 ,0,0.875866902,0.752135434,1.741848294\H,0,-1.270762083,1.834202691,-1
 .738512032\H,0,-1.651913619,0.211842813,-1.214922021\H,0,1.857951548,-
 1.111997528,-1.922612852\H,0,0.312143536,-1.634160458,-1.342280614\H,0
 ,2.663533872,-1.923747709,0.141431504\H,0,0.095341651,-1.449926706,2.3
 00774154\H,0,-2.283651019,-1.052507937,0.426672826\H,0,-0.98565069,-2.
 250865136,0.211748075\H,0,-2.054659097,-2.343673193,1.59778351\H,0,-2.
 189484216,0.564385303,2.427393759\H,0,-0.741985668,0.599558644,3.45496
 8001\H,0,-1.850469294,-0.773117382,3.526267135\\Version=EM64L-G09RevC.
 01\State=1-A\HF=-459.6095432\RMSD=7.620e-09\Dipole=0.13991,0.2021386,-
 0.4549434\Quadrupole=1.5632942,-0.613617,-0.9496772,-0.3656317,-1.5648
 88,1.5066851\PG=C01 [X(C10H20O1)]\\@


 IT IS A QUALITY OF REVOLUTIONS NOT TO GO BY OLD LINES OR OLD LAWS,
 BUT TO BREAK UP BOTH, AND MAKE NEW ONES.
                                              -- A. LINCOLN (1848)
 Job cpu time:  0 days  0 hours  0 minutes 30.7 seconds.
 File lengths (MBytes):  RWF=      5 Int=      0 D2E=      0 Chk=      1 Scr=      1
 Normal termination of Gaussian 09 at Tue Aug  3 16:37:56 2021.
