 Entering Gaussian System, Link 0=g09
 Input=/home/ytsai.iquir/menthol/04_menthol_M0004_MMFF_NMR_rhf_STO-3G_nbo.gjc
 Output=/home/ytsai.iquir/menthol/04_menthol_M0004_MMFF_NMR_rhf_STO-3G_nbo.log
 Initial command:
 /share/apps/Gaussian09/EM64T.SSE4.2-enabled/g09/l1.exe /tmp/Gau-2035.inp -scrdir=/tmp/
 Entering Link 1 = /share/apps/Gaussian09/EM64T.SSE4.2-enabled/g09/l1.exe PID=      2036.
  
 Copyright (c) 1988,1990,1992,1993,1995,1998,2003,2009,2011,
            Gaussian, Inc.  All Rights Reserved.
  
 This is part of the Gaussian(R) 09 program.  It is based on
 the Gaussian(R) 03 system (copyright 2003, Gaussian, Inc.),
 the Gaussian(R) 98 system (copyright 1998, Gaussian, Inc.),
 the Gaussian(R) 94 system (copyright 1995, Gaussian, Inc.),
 the Gaussian 92(TM) system (copyright 1992, Gaussian, Inc.),
 the Gaussian 90(TM) system (copyright 1990, Gaussian, Inc.),
 the Gaussian 88(TM) system (copyright 1988, Gaussian, Inc.),
 the Gaussian 86(TM) system (copyright 1986, Carnegie Mellon
 University), and the Gaussian 82(TM) system (copyright 1983,
 Carnegie Mellon University). Gaussian is a federally registered
 trademark of Gaussian, Inc.
  
 This software contains proprietary and confidential information,
 including trade secrets, belonging to Gaussian, Inc.
  
 This software is provided under written license and may be
 used, copied, transmitted, or stored only in accord with that
 written license.
  
 The following legend is applicable only to US Government
 contracts under FAR:
  
                    RESTRICTED RIGHTS LEGEND
  
 Use, reproduction and disclosure by the US Government is
 subject to restrictions as set forth in subparagraphs (a)
 and (c) of the Commercial Computer Software - Restricted
 Rights clause in FAR 52.227-19.
  
 Gaussian, Inc.
 340 Quinnipiac St., Bldg. 40, Wallingford CT 06492
  
  
 ---------------------------------------------------------------
 Warning -- This program may not be used in any manner that
 competes with the business of Gaussian, Inc. or will provide
 assistance to any competitor of Gaussian, Inc.  The licensee
 of this program is prohibited from giving any competitor of
 Gaussian, Inc. access to this program.  By using this program,
 the user acknowledges that Gaussian, Inc. is engaged in the
 business of creating and licensing software in the field of
 computational chemistry and represents and warrants to the
 licensee that it is not a competitor of Gaussian, Inc. and that
 it will not use this program in any manner prohibited above.
 ---------------------------------------------------------------
  

 Cite this work as:
 Gaussian 09, Revision C.01,
 M. J. Frisch, G. W. Trucks, H. B. Schlegel, G. E. Scuseria, 
 M. A. Robb, J. R. Cheeseman, G. Scalmani, V. Barone, B. Mennucci, 
 G. A. Petersson, H. Nakatsuji, M. Caricato, X. Li, H. P. Hratchian, 
 A. F. Izmaylov, J. Bloino, G. Zheng, J. L. Sonnenberg, M. Hada, 
 M. Ehara, K. Toyota, R. Fukuda, J. Hasegawa, M. Ishida, T. Nakajima, 
 Y. Honda, O. Kitao, H. Nakai, T. Vreven, J. A. Montgomery, Jr., 
 J. E. Peralta, F. Ogliaro, M. Bearpark, J. J. Heyd, E. Brothers, 
 K. N. Kudin, V. N. Staroverov, T. Keith, R. Kobayashi, J. Normand, 
 K. Raghavachari, A. Rendell, J. C. Burant, S. S. Iyengar, J. Tomasi, 
 M. Cossi, N. Rega, J. M. Millam, M. Klene, J. E. Knox, J. B. Cross, 
 V. Bakken, C. Adamo, J. Jaramillo, R. Gomperts, R. E. Stratmann, 
 O. Yazyev, A. J. Austin, R. Cammi, C. Pomelli, J. W. Ochterski, 
 R. L. Martin, K. Morokuma, V. G. Zakrzewski, G. A. Voth, 
 P. Salvador, J. J. Dannenberg, S. Dapprich, A. D. Daniels, 
 O. Farkas, J. B. Foresman, J. V. Ortiz, J. Cioslowski, 
 and D. J. Fox, Gaussian, Inc., Wallingford CT, 2010.
 
 ******************************************
 Gaussian 09:  EM64L-G09RevC.01 23-Sep-2011
                 3-Aug-2021 
 ******************************************
 %nprocshared=4
 Will use up to    4 processors via shared memory.
 ------------------------
 # rhf/STO-3G nmr pop=nbo
 ------------------------
 1/38=1/1;
 2/12=2,17=6,18=5,40=1/2;
 3/6=3,11=1,16=1,25=1,30=1,116=1/1,2,8,3;
 4//1;
 5/5=2,38=5/2;
 8/6=1,10=90,11=11/1;
 10/13=100,45=16/2;
 6/7=2,8=2,9=2,10=2,28=1,64=1/1,7;
 99/9=1/99;
 -------
 comment
 -------
 Charge =  0 Multiplicity = 1
 Symbolic Z-Matrix:
 6                    -0.88773  -2.30852  -2.82818 
 6                    -0.71857  -1.66391  -1.45324 
 6                     0.97564  -0.7544    0.21413 
 6                    -1.28196   0.36414  -0.0372 
 6                     0.2086    0.58794   0.3012 
 6                    -1.47682  -0.33698  -1.38127 
 6                     0.76622  -1.44699  -1.13585 
 8                     0.55254  -1.65104   1.23966 
 6                     0.37731   1.30777   1.67664 
 6                    -0.31977   2.67542   1.70387 
 6                     1.8528    1.51289   2.04447 
 1                    -1.94609  -2.48733  -3.04526 
 1                    -0.48264  -1.67042  -3.62092 
 1                    -0.36943  -3.27222  -2.87123 
 1                    -1.14396  -2.34922  -0.70843 
 1                     2.05194  -0.59403   0.33758 
 1                    -1.81254   1.32053  -0.08734 
 1                    -1.76101  -0.22503   0.75473 
 1                     0.62449   1.24913  -0.47287 
 1                    -1.13984   0.33031  -2.18514 
 1                    -2.54748  -0.51023  -1.54395 
 1                     1.23221  -0.8448   -1.92617 
 1                     1.27219  -2.42065  -1.12676 
 1                     0.85727  -1.29588   2.09102 
 1                    -0.08168   0.69419   2.46222 
 1                     0.01517   3.30754   0.87469 
 1                    -1.40716   2.57391   1.64412 
 1                    -0.10598   3.20472   2.63913 
 1                     2.38668   2.04906   1.25267 
 1                     2.36129   0.5604    2.21905 
 1                     1.94832   2.09367   2.96861 
 
                          Input orientation:                          
 ---------------------------------------------------------------------
 Center     Atomic      Atomic             Coordinates (Angstroms)
 Number     Number       Type             X           Y           Z
 ---------------------------------------------------------------------
      1          6           0       -0.887730   -2.308516   -2.828177
      2          6           0       -0.718571   -1.663913   -1.453236
      3          6           0        0.975645   -0.754398    0.214130
      4          6           0       -1.281963    0.364144   -0.037196
      5          6           0        0.208600    0.587937    0.301200
      6          6           0       -1.476818   -0.336978   -1.381273
      7          6           0        0.766218   -1.446995   -1.135851
      8          8           0        0.552543   -1.651035    1.239656
      9          6           0        0.377310    1.307773    1.676641
     10          6           0       -0.319773    2.675418    1.703873
     11          6           0        1.852802    1.512887    2.044475
     12          1           0       -1.946094   -2.487334   -3.045261
     13          1           0       -0.482644   -1.670415   -3.620921
     14          1           0       -0.369430   -3.272215   -2.871226
     15          1           0       -1.143957   -2.349217   -0.708433
     16          1           0        2.051937   -0.594026    0.337583
     17          1           0       -1.812541    1.320533   -0.087336
     18          1           0       -1.761006   -0.225027    0.754735
     19          1           0        0.624488    1.249127   -0.472867
     20          1           0       -1.139838    0.330305   -2.185139
     21          1           0       -2.547478   -0.510226   -1.543949
     22          1           0        1.232207   -0.844800   -1.926172
     23          1           0        1.272189   -2.420646   -1.126760
     24          1           0        0.857274   -1.295876    2.091019
     25          1           0       -0.081683    0.694186    2.462223
     26          1           0        0.015172    3.307544    0.874686
     27          1           0       -1.407160    2.573910    1.644119
     28          1           0       -0.105982    3.204721    2.639128
     29          1           0        2.386675    2.049062    1.252668
     30          1           0        2.361290    0.560405    2.219050
     31          1           0        1.948318    2.093666    2.968612
 ---------------------------------------------------------------------
                    Distance matrix (angstroms):
                    1          2          3          4          5
     1  C    0.000000
     2  C    1.527936   0.000000
     3  C    3.891411   2.545132   0.000000
     4  C    3.884341   2.536848   2.532014   0.000000
     5  C    4.402770   3.001420   1.548484   1.544790   0.000000
     6  C    2.515456   1.529992   2.955355   1.528425   2.554764
     7  C    2.518279   1.533749   1.531665   2.946576   2.552842
     8  O    4.365081   2.977845   1.426421   3.009437   2.451936
     9  C    5.913650   4.452865   2.597979   2.565319   1.561559
    10  C    6.760300   5.381094   3.957409   3.049446   2.569873
    11  C    6.771733   5.379405   3.043049   3.934427   2.568645
    12  H    1.095096   2.172412   4.707786   4.197672   5.029791
    13  H    1.095312   2.180495   4.203964   4.197788   4.578319
    14  H    1.095082   2.172379   4.203338   4.699739   5.029829
    15  H    2.135562   1.097873   2.808430   2.798559   3.387571
    16  H    4.647919   3.468055   1.095155   3.489045   2.190034
    17  H    4.640850   3.459678   3.488582   1.094855   2.184644
    18  H    4.235658   2.834114   2.839321   1.097160   2.178520
    19  H    4.526711   3.354212   2.146949   2.146523   1.099689
    20  H    2.727716   2.165653   3.377624   2.152906   2.840166
    21  H    2.763667   2.164284   3.944979   2.153219   3.493781
    22  H    2.729507   2.167983   2.157520   3.369099   2.839313
    23  H    2.751844   2.154613   2.159238   3.932671   3.495979
    24  H    5.316857   3.896214   1.957019   3.444024   2.678242
    25  H    6.136307   4.614876   2.875806   2.792257   2.183019
    26  H    6.787235   5.538320   4.225899   3.343306   2.786138
    27  H    6.641485   5.294045   4.335927   2.779489   2.891055
    28  H    7.803739   6.389547   4.767091   4.076092   3.523128
    29  H    6.809075   5.545328   3.305897   4.238114   2.790016
    30  H    6.652920   5.283827   2.769192   4.289809   2.883224
    31  H    7.811858   6.386270   4.079796   4.739288   3.522630
                    6          7          8          9         10
     6  C    0.000000
     7  C    2.514673   0.000000
     8  O    3.565715   2.393809   0.000000
     9  C    3.936221   3.956022   2.996033   0.000000
    10  C    4.464461   5.122274   4.437864   1.535291   0.000000
    11  C    5.122901   4.478396   3.514088   1.534421   2.487482
    12  H    2.759186   3.476318   5.030217   6.488251   7.200917
    13  H    2.789706   2.790187   4.969627   6.137857   6.875044
    14  H    3.473022   2.762726   4.514156   6.497462   7.503888
    15  H    2.147700   2.155332   2.675933   4.623463   5.634311
    16  H    3.933529   2.133456   2.044306   2.866059   4.263921
    17  H    2.129396   3.925378   4.023027   2.811979   2.696757
    18  H    2.157737   3.384432   2.760644   2.787791   3.374996
    19  H    2.785034   2.780055   3.368806   2.164468   2.768417
    20  H    1.097735   2.809422   4.303380   4.262690   4.614810
    21  H    1.096719   3.467659   4.319726   4.715051   5.065506
    22  H    2.809558   1.097448   3.336829   4.283070   5.289406
    23  H    3.458828   1.097309   2.590389   4.749840   6.042905
    24  H    4.292352   3.231690   0.971503   2.679751   4.160109
    25  H    4.216890   4.271970   2.719738   1.097407   2.134728
    26  H    4.538494   5.216509   5.000948   2.184803   1.095136
    27  H    4.198943   5.349717   4.674846   2.188262   1.093748
    28  H    5.530502   6.053896   5.096131   2.181368   1.095706
    29  H    5.249515   4.533577   4.129762   2.183303   2.814386
    30  H    5.338417   4.222472   3.020141   2.188366   3.453518
    31  H    6.046576   5.547995   4.354339   2.180569   2.661247
                   11         12         13         14         15
    11  C    0.000000
    12  H    7.505916   0.000000
    13  H    6.905391   1.772125   0.000000
    14  H    7.211077   1.769800   1.772180   0.000000
    15  H    5.610250   2.474523   3.062791   2.475781   0.000000
    16  H    2.718863   5.568886   4.822081   4.830339   3.793228
    17  H    4.244567   4.823589   4.816702   5.561110   3.781512
    18  H    4.212289   4.426314   4.782230   4.936540   2.652130
    19  H    2.813421   5.214043   4.433927   5.213687   4.016337
    20  H    5.314511   3.054333   2.548775   3.747318   3.059496
    21  H    6.027622   2.554321   3.150142   3.759540   2.459643
    22  H    4.659385   3.748583   2.548436   3.057893   3.064688
    23  H    5.085914   3.747324   3.140561   2.542292   2.453133
    24  H    2.980334   5.971583   5.878938   5.480383   3.598803
    25  H    2.141732   6.628007   6.538864   6.652880   4.521480
    26  H    2.822426   7.265890   6.725948   7.581095   5.987386
    27  H    3.451580   6.920760   6.825663   7.459383   5.462687
    28  H    2.655701   8.252138   7.943365   8.507885   6.567327
    29  H    1.095200   7.604207   6.769001   7.274518   5.971276
    30  H    1.093736   7.453539   6.868026   6.932296   5.415054
    31  H    1.095653   8.504038   7.968678   8.262466   6.543854
                   16         17         18         19         20
    16  H    0.000000
    17  H    4.333622   0.000000
    18  H    3.853402   1.760822   0.000000
    19  H    2.468128   2.468368   3.061163   0.000000
    20  H    4.172043   2.415338   3.055667   2.624682   0.000000
    21  H    4.970091   2.452251   2.446186   3.782051   1.760417
    22  H    2.420626   4.164190   4.065797   2.620296   2.659800
    23  H    2.467559   4.959071   4.190589   3.783429   3.808645
    24  H    2.234805   4.326516   3.128540   3.620048   4.991838
    25  H    3.275045   3.144587   2.565266   3.069429   4.780175
    26  H    4.433863   2.866048   3.955788   2.534610   4.422729
    27  H    4.869107   2.175597   2.958084   3.219359   4.446171
    28  H    4.938036   3.727749   4.248908   3.747325   5.710051
    29  H    2.816974   4.467637   4.756330   2.592812   5.216219
    30  H    2.228975   4.828879   4.444597   3.276773   5.630961
    31  H    3.762544   4.907200   4.902721   3.782797   6.261573
                   21         22         23         24         25
    21  H    0.000000
    22  H    3.813667   0.000000
    23  H    4.291108   1.767470   0.000000
    24  H    5.042080   4.059787   3.433855   0.000000
    25  H    4.855941   4.832474   4.941250   2.231542   0.000000
    26  H    5.195415   5.154411   6.196616   4.835296   3.059297
    27  H    4.579956   5.603643   6.308904   4.505843   2.441218
    28  H    6.104086   6.247507   6.908403   4.635047   2.516878
    29  H    6.222290   4.451097   5.184790   3.772335   3.064557
    30  H    6.277135   4.520210   4.611643   2.392538   2.458689
    31  H    6.881543   5.753808   6.132555   3.667362   2.517118
                   26         27         28         29         30
    26  H    0.000000
    27  H    1.775746   0.000000
    28  H    1.771583   1.755286   0.000000
    29  H    2.711213   3.849920   3.077525   0.000000
    30  H    3.854655   4.311144   3.640921   1.775004   0.000000
    31  H    3.097593   3.639251   2.358633   1.771612   1.755926
                   31
    31  H    0.000000
 Stoichiometry    C10H20O
 Framework group  C1[X(C10H20O)]
 Deg. of freedom    87
 Full point group                 C1      NOp   1
 Largest Abelian subgroup         C1      NOp   1
 Largest concise Abelian subgroup C1      NOp   1
                         Standard orientation:                         
 ---------------------------------------------------------------------
 Center     Atomic      Atomic             Coordinates (Angstroms)
 Number     Number       Type             X           Y           Z
 ---------------------------------------------------------------------
      1          6           0       -3.697305    0.209706   -0.311325
      2          6           0       -2.256230    0.080506    0.179797
      3          6           0       -0.050855   -1.141522   -0.167569
      4          6           0       -0.055589    1.306980    0.477340
      5          6           0        0.705415    0.204045   -0.291284
      6          6           0       -1.518618    1.414490    0.048305
      7          6           0       -1.516082   -1.016279   -0.595850
      8          8           0       -0.023895   -1.620085    1.175907
      9          6           0        2.196444    0.118892    0.164837
     10          6           0        2.944647    1.441990   -0.051322
     11          6           0        2.962152   -0.991426   -0.566827
     12          1           0       -4.234402    0.974901    0.258972
     13          1           0       -3.734933    0.487861   -1.370061
     14          1           0       -4.234604   -0.736839   -0.190629
     15          1           0       -2.288799   -0.196530    1.241642
     16          1           0        0.412308   -1.905630   -0.800802
     17          1           0        0.407874    2.284102    0.306628
     18          1           0       -0.004746    1.114169    1.556227
     19          1           0        0.698965    0.482289   -1.355170
     20          1           0       -1.561907    1.764819   -0.991126
     21          1           0       -2.016626    2.177490    0.658723
     22          1           0       -1.560452   -0.806327   -1.672113
     23          1           0       -2.026160   -1.973420   -0.429149
     24          1           0        0.889500   -1.878795    1.382296
     25          1           0        2.231688   -0.101760    1.239255
     26          1           0        2.859702    1.780303   -1.089422
     27          1           0        2.562663    2.231502    0.602163
     28          1           0        4.009662    1.331466    0.181264
     29          1           0        2.890127   -0.871501   -1.653057
     30          1           0        2.583767   -1.983332   -0.303755
     31          1           0        4.023662   -0.978385   -0.295749
 ---------------------------------------------------------------------
 Rotational constants (GHZ):      1.9924274      0.6751201      0.5691326
 Standard basis: STO-3G (5D, 7F)
 There are    75 symmetry adapted basis functions of A   symmetry.
 Integral buffers will be    131072 words long.
 Raffenetti 1 integral format.
 Two-electron integral symmetry is turned on.
    75 basis functions,   225 primitive gaussians,    75 cartesian basis functions
    44 alpha electrons       44 beta electrons
       nuclear repulsion energy       692.0498996047 Hartrees.
 NAtoms=   31 NActive=   31 NUniq=   31 SFac= 1.00D+00 NAtFMM=   60 NAOKFM=F Big=F
 One-electron integrals computed using PRISM.
 NBasis=    75 RedAO= T  NBF=    75
 NBsUse=    75 1.00D-06 NBFU=    75
 Harris functional with IExCor=  205 diagonalized for initial guess.
 ExpMin= 1.69D-01 ExpMax= 1.31D+02 ExpMxC= 1.31D+02 IAcc=1 IRadAn=         1 AccDes= 0.00D+00
 HarFok:  IExCor=  205 AccDes= 0.00D+00 IRadAn=         1 IDoV= 1
 ScaDFX=  1.000000  1.000000  1.000000  1.000000
 FoFCou: FMM=F IPFlag=           0 FMFlag=      100000 FMFlg1=           0
         NFxFlg=           0 DoJE=T BraDBF=F KetDBF=T FulRan=T
         Omega=  0.000000  0.000000  1.000000  0.000000  0.000000 ICntrl=     500 IOpCl=  0
         NMat0=    1 NMatS0=    1 NMatT0=    0 NMatD0=    1 NMtDS0=    0 NMtDT0=    0
         I1Cent=           4 NGrid=           0.
 Petite list used in FoFCou.
 Initial guess orbital symmetries:
       Occupied  (A) (A) (A) (A) (A) (A) (A) (A) (A) (A) (A) (A)
                 (A) (A) (A) (A) (A) (A) (A) (A) (A) (A) (A) (A)
                 (A) (A) (A) (A) (A) (A) (A) (A) (A) (A) (A) (A)
                 (A) (A) (A) (A) (A) (A) (A) (A)
       Virtual   (A) (A) (A) (A) (A) (A) (A) (A) (A) (A) (A) (A)
                 (A) (A) (A) (A) (A) (A) (A) (A) (A) (A) (A) (A)
                 (A) (A) (A) (A) (A) (A) (A)
 The electronic state of the initial guess is 1-A.
 Requested convergence on RMS density matrix=1.00D-08 within 128 cycles.
 Requested convergence on MAX density matrix=1.00D-06.
 Requested convergence on             energy=1.00D-06.
 No special actions if energy rises.
 Keep R1 ints in memory in canonical form, NReq=4898789.
 SCF Done:  E(RHF) =  -459.622456912     A.U. after   10 cycles
             Convg  =    0.6425D-08             -V/T =  2.0090
 Range of M.O.s used for correlation:     1    75
 NBasis=    75 NAE=    44 NBE=    44 NFC=     0 NFV=     0
 NROrb=     75 NOA=    44 NOB=    44 NVA=    31 NVB=    31
          Differentiating once with respect to magnetic field using GIAOs.
          Electric field/nuclear overlap derivatives assumed to be zero.
          Keep R3 ints in memory in canonical form, NReq=4863575.
 FoFCou: FMM=F IPFlag=           0 FMFlag=           0 FMFlg1=           0
         NFxFlg=           0 DoJE=F BraDBF=F KetDBF=T FulRan=T
         Omega=  0.000000  0.000000  1.000000  0.000000  0.000000 ICntrl=    6100 IOpCl=  0
         NMat0=    1 NMatS0=    1 NMatT0=    0 NMatD0=    1 NMtDS0=    0 NMtDT0=    0
         I1Cent=           7 NGrid=          31.
 Symmetry not used in FoFCou.
          There are     3 degrees of freedom in the 1st order CPHF.  IDoFFX=0.
      3 vectors produced by pass  0 Test12= 4.55D-14 3.33D-08 XBig12= 8.18D+00 4.05D-01.
 AX will form     3 AO Fock derivatives at one time.
      3 vectors produced by pass  1 Test12= 4.55D-14 3.33D-08 XBig12= 1.24D-02 1.83D-02.
      3 vectors produced by pass  2 Test12= 4.55D-14 3.33D-08 XBig12= 9.38D-05 2.79D-03.
      3 vectors produced by pass  3 Test12= 4.55D-14 3.33D-08 XBig12= 2.49D-06 3.99D-04.
      3 vectors produced by pass  4 Test12= 4.55D-14 3.33D-08 XBig12= 2.18D-08 2.36D-05.
      3 vectors produced by pass  5 Test12= 4.55D-14 3.33D-08 XBig12= 3.33D-10 2.92D-06.
      3 vectors produced by pass  6 Test12= 4.55D-14 3.33D-08 XBig12= 3.49D-12 3.05D-07.
 Inverted reduced A of dimension    21 with in-core refinement.
 Calculating GIAO nuclear magnetic shielding tensors.
 SCF GIAO Magnetic shielding tensor (ppm):
      1  C    Isotropic =   220.9732   Anisotropy =    28.5903
   XX=   238.6213   YX=    -1.3138   ZX=     4.2438
   XY=    -2.1386   YY=   211.9591   ZY=    -0.1609
   XZ=     7.7700   YZ=    -0.0643   ZZ=   212.3392
   Eigenvalues:   210.9579   211.9283   240.0334
      2  C    Isotropic =   216.3848   Anisotropy =     8.4298
   XX=   221.3675   YX=    -0.0090   ZX=     0.5726
   XY=     1.4980   YY=   217.5783   ZY=     1.8763
   XZ=     3.6715   YZ=     1.3662   ZZ=   210.2085
   Eigenvalues:   209.5502   217.5995   222.0047
      3  C    Isotropic =   189.8242   Anisotropy =    35.2459
   XX=   182.2329   YX=     2.3877   ZX=     4.5382
   XY=     3.3486   YY=   179.8448   ZY=   -13.8656
   XZ=     3.5263   YZ=   -13.6711   ZZ=   207.3950
   Eigenvalues:   172.3366   183.8146   213.3215
      4  C    Isotropic =   217.6856   Anisotropy =    16.3383
   XX=   226.4789   YX=    -2.9460   ZX=     0.0118
   XY=    -6.8548   YY=   214.0893   ZY=     6.1469
   XZ=    -1.2932   YZ=     4.7802   ZZ=   212.4885
   Eigenvalues:   207.3479   217.1310   228.5778
      5  C    Isotropic =   208.7583   Anisotropy =    17.1849
   XX=   219.9842   YX=     0.8487   ZX=    -0.3723
   XY=    -1.6718   YY=   204.9257   ZY=    -2.6533
   XZ=     4.3174   YZ=    -1.0453   ZZ=   201.3649
   Eigenvalues:   200.4365   205.6235   220.2149
      6  C    Isotropic =   215.5734   Anisotropy =    17.2158
   XX=   222.7752   YX=     4.3294   ZX=     3.8619
   XY=     8.0923   YY=   217.2708   ZY=    -0.9131
   XZ=     1.7566   YZ=     0.2436   ZZ=   206.6742
   Eigenvalues:   205.9935   213.6760   227.0506
      7  C    Isotropic =   214.7639   Anisotropy =    18.3402
   XX=   223.1175   YX=    -6.4302   ZX=     3.8344
   XY=    -8.3088   YY=   212.9306   ZY=     2.2214
   XZ=    -1.5878   YZ=     3.7253   ZZ=   208.2435
   Eigenvalues:   205.4691   211.8319   226.9907
      8  O    Isotropic =   367.3896   Anisotropy =    78.0303
   XX=   414.1602   YX=   -19.9858   ZX=    23.1554
   XY=   -12.2377   YY=   350.1528   ZY=     8.5983
   XZ=     0.9267   YZ=    -0.0547   ZZ=   337.8557
   Eigenvalues:   332.9133   349.8457   419.4098
      9  C    Isotropic =   214.1757   Anisotropy =    15.6745
   XX=   224.1607   YX=    -3.3988   ZX=    -0.2826
   XY=    -1.0613   YY=   213.6357   ZY=     1.7090
   XZ=     2.1752   YZ=     2.8340   ZZ=   204.7307
   Eigenvalues:   204.0794   213.8224   224.6254
     10  C    Isotropic =   221.2326   Anisotropy =    25.8342
   XX=   222.7131   YX=    10.0977   ZX=    -0.3806
   XY=     9.5888   YY=   231.9378   ZY=    -1.2715
   XZ=     0.1290   YZ=    -5.1055   ZZ=   209.0470
   Eigenvalues:   208.4687   216.7737   238.4555
     11  C    Isotropic =   221.9545   Anisotropy =    24.2935
   XX=   223.4454   YX=    -8.4245   ZX=    -4.6912
   XY=    -8.2505   YY=   226.3648   ZY=     7.9623
   XZ=    -3.5280   YZ=    11.6965   ZZ=   216.0534
   Eigenvalues:   210.0430   217.6704   238.1502
     12  H    Isotropic =    32.3913   Anisotropy =    13.9387
   XX=    37.0007   YX=    -5.2521   ZX=    -3.2073
   XY=    -5.1196   YY=    31.6356   ZY=     3.6644
   XZ=    -2.8949   YZ=     3.4407   ZZ=    28.5375
   Eigenvalues:    26.1974    29.2927    41.6837
     13  H    Isotropic =    32.7039   Anisotropy =    11.6617
   XX=    32.9708   YX=    -1.1513   ZX=     4.1523
   XY=    -1.1910   YY=    27.9264   ZY=    -2.6478
   XZ=     4.2840   YZ=    -2.6862   ZZ=    37.2147
   Eigenvalues:    27.2146    30.4188    40.4784
     14  H    Isotropic =    32.3709   Anisotropy =    13.7842
   XX=    37.0731   YX=     6.0042   ZX=    -0.2209
   XY=     5.7147   YY=    33.8756   ZY=    -0.6928
   XZ=     0.0078   YZ=    -0.4622   ZZ=    26.1639
   Eigenvalues:    26.1045    29.4478    41.5603
     15  H    Isotropic =    32.2359   Anisotropy =    10.5183
   XX=    31.7452   YX=    -0.2607   ZX=    -2.1659
   XY=    -0.4207   YY=    27.1240   ZY=    -3.1554
   XZ=    -2.2472   YZ=    -3.1155   ZZ=    37.8383
   Eigenvalues:    26.1188    31.3407    39.2481
     16  H    Isotropic =    31.8965   Anisotropy =     9.8217
   XX=    33.1140   YX=    -2.2381   ZX=    -1.8622
   XY=    -2.2390   YY=    33.2503   ZY=     4.6253
   XZ=    -1.5207   YZ=     6.0385   ZZ=    29.3252
   Eigenvalues:    25.6044    31.6407    38.4443
     17  H    Isotropic =    32.3597   Anisotropy =    12.5073
   XX=    34.6408   YX=     3.6060   ZX=    -0.4183
   XY=     3.3040   YY=    38.7198   ZY=     0.7767
   XZ=    -0.3196   YZ=     0.3500   ZZ=    23.7185
   Eigenvalues:    23.6730    32.7082    40.6979
     18  H    Isotropic =    32.4280   Anisotropy =    10.0372
   XX=    30.5681   YX=    -0.7871   ZX=     0.8854
   XY=    -1.0196   YY=    28.0836   ZY=     2.0655
   XZ=     0.9143   YZ=     2.2684   ZZ=    38.6325
   Eigenvalues:    27.3064    30.8582    39.1195
     19  H    Isotropic =    33.0200   Anisotropy =     8.7209
   XX=    33.0323   YX=     0.3146   ZX=    -0.6065
   XY=     0.2708   YY=    28.1369   ZY=    -2.8748
   XZ=    -0.7472   YZ=    -3.1333   ZZ=    37.8909
   Eigenvalues:    27.2843    32.9419    38.8340
     20  H    Isotropic =    32.8354   Anisotropy =    11.0163
   XX=    31.4781   YX=    -0.5162   ZX=     2.0502
   XY=    -0.7109   YY=    32.1305   ZY=    -5.8102
   XZ=     2.1108   YZ=    -6.2744   ZZ=    34.8977
   Eigenvalues:    27.1489    31.1778    40.1796
     21  H    Isotropic =    32.3238   Anisotropy =    14.1273
   XX=    32.9083   YX=    -4.1979   ZX=    -2.1972
   XY=    -4.3469   YY=    36.1995   ZY=     5.5959
   XZ=    -2.2911   YZ=     5.8366   ZZ=    27.8636
   Eigenvalues:    24.9565    30.2728    41.7420
     22  H    Isotropic =    32.7672   Anisotropy =    11.0461
   XX=    31.3782   YX=    -0.5957   ZX=     2.0430
   XY=    -0.6109   YY=    27.5240   ZY=     1.3434
   XZ=     2.4358   YZ=     1.7908   ZZ=    39.3995
   Eigenvalues:    27.1188    31.0517    40.1313
     23  H    Isotropic =    31.9053   Anisotropy =    13.3471
   XX=    32.9314   YX=     4.6126   ZX=     0.6209
   XY=     4.6405   YY=    38.0236   ZY=     0.6283
   XZ=     0.8927   YZ=     0.4523   ZZ=    24.7611
   Eigenvalues:    24.6903    30.2223    40.8034
     24  H    Isotropic =    34.7621   Anisotropy =    17.0049
   XX=    41.4645   YX=    -4.7336   ZX=     4.9717
   XY=    -3.7188   YY=    30.2919   ZY=    -7.5754
   XZ=     3.2045   YZ=    -6.7928   ZZ=    32.5300
   Eigenvalues:    24.1199    34.0677    46.0987
     25  H    Isotropic =    32.8596   Anisotropy =     9.4409
   XX=    31.2712   YX=     0.6740   ZX=     1.6646
   XY=     0.1386   YY=    28.9860   ZY=    -2.3324
   XZ=     1.5638   YZ=    -2.3448   ZZ=    38.3216
   Eigenvalues:    28.2259    31.1994    39.1535
     26  H    Isotropic =    32.6646   Anisotropy =    11.1912
   XX=    30.2719   YX=     2.4440   ZX=    -1.4926
   XY=     2.2915   YY=    32.3017   ZY=    -5.3425
   XZ=    -1.5168   YZ=    -5.3305   ZZ=    35.4203
   Eigenvalues:    27.7827    30.0858    40.1254
     27  H    Isotropic =    32.2973   Anisotropy =    11.3512
   XX=    31.5764   YX=     0.7747   ZX=    -1.2076
   XY=     0.3756   YY=    36.8679   ZY=     6.0603
   XZ=    -0.9550   YZ=     5.6383   ZZ=    28.4475
   Eigenvalues:    25.2150    31.8121    39.8647
     28  H    Isotropic =    32.5587   Anisotropy =    14.1222
   XX=    40.9800   YX=     2.4853   ZX=     2.5579
   XY=     2.5759   YY=    30.0479   ZY=     0.7054
   XZ=     2.4250   YZ=     0.7064   ZZ=    26.6481
   Eigenvalues:    26.2051    29.4974    41.9735
     29  H    Isotropic =    32.6970   Anisotropy =    11.2753
   XX=    30.3428   YX=    -1.4215   ZX=    -2.5488
   XY=    -1.4256   YY=    28.7448   ZY=     2.1956
   XZ=    -2.5455   YZ=     2.0622   ZZ=    39.0033
   Eigenvalues:    27.8729    30.0041    40.2138
     30  H    Isotropic =    32.8066   Anisotropy =    10.7440
   XX=    32.2839   YX=    -0.1632   ZX=    -1.7191
   XY=    -0.0726   YY=    39.9331   ZY=    -0.8525
   XZ=    -1.3429   YZ=    -0.5535   ZZ=    26.2027
   Eigenvalues:    25.8032    32.6472    39.9692
     31  H    Isotropic =    32.6144   Anisotropy =    14.1765
   XX=    41.1835   YX=    -2.9781   ZX=     1.4328
   XY=    -3.2130   YY=    29.9264   ZY=     0.7045
   XZ=     1.2809   YZ=     0.6104   ZZ=    26.7331
   Eigenvalues:    26.3119    29.4658    42.0654
 End of Minotr Frequency-dependent properties file   721 does not exist.
 End of Minotr Frequency-dependent properties file   722 does not exist.

 **********************************************************************

            Population analysis using the SCF density.

 **********************************************************************

 Orbital symmetries:
       Occupied  (A) (A) (A) (A) (A) (A) (A) (A) (A) (A) (A) (A)
                 (A) (A) (A) (A) (A) (A) (A) (A) (A) (A) (A) (A)
                 (A) (A) (A) (A) (A) (A) (A) (A) (A) (A) (A) (A)
                 (A) (A) (A) (A) (A) (A) (A) (A)
       Virtual   (A) (A) (A) (A) (A) (A) (A) (A) (A) (A) (A) (A)
                 (A) (A) (A) (A) (A) (A) (A) (A) (A) (A) (A) (A)
                 (A) (A) (A) (A) (A) (A) (A)
 The electronic state is 1-A.
 Alpha  occ. eigenvalues --  -20.23624 -11.08354 -11.05160 -11.04256 -11.03876
 Alpha  occ. eigenvalues --  -11.03676 -11.03534 -11.03320 -11.03175 -11.03103
 Alpha  occ. eigenvalues --  -11.02643  -1.27781  -1.07688  -1.03927  -0.96740
 Alpha  occ. eigenvalues --   -0.94927  -0.89325  -0.87566  -0.78733  -0.78073
 Alpha  occ. eigenvalues --   -0.73018  -0.70368  -0.62590  -0.61564  -0.57753
 Alpha  occ. eigenvalues --   -0.57014  -0.56857  -0.55151  -0.53034  -0.51677
 Alpha  occ. eigenvalues --   -0.50669  -0.50537  -0.50307  -0.48063  -0.46050
 Alpha  occ. eigenvalues --   -0.44827  -0.43811  -0.43504  -0.42293  -0.41793
 Alpha  occ. eigenvalues --   -0.39330  -0.38967  -0.36138  -0.32905
 Alpha virt. eigenvalues --    0.52989   0.55846   0.57206   0.59823   0.60495
 Alpha virt. eigenvalues --    0.61612   0.62400   0.64417   0.67631   0.67938
 Alpha virt. eigenvalues --    0.69612   0.70175   0.70837   0.71332   0.72894
 Alpha virt. eigenvalues --    0.73175   0.73808   0.74357   0.75758   0.76394
 Alpha virt. eigenvalues --    0.76570   0.76740   0.77897   0.78843   0.79709
 Alpha virt. eigenvalues --    0.81021   0.81771   0.83024   0.83255   0.84622
 Alpha virt. eigenvalues --    0.85033
          Condensed to atoms (all electrons):
              1          2          3          4          5          6
     1  C    4.740319   0.365717   0.000721   0.000738   0.000005  -0.024435
     2  C    0.365717   4.743036  -0.020940  -0.021880  -0.003552   0.364397
     3  C    0.000721  -0.020940   4.744337  -0.022543   0.354360  -0.003696
     4  C    0.000738  -0.021880  -0.022543   4.756281   0.361347   0.363040
     5  C    0.000005  -0.003552   0.354360   0.361347   4.790687  -0.020592
     6  C   -0.024435   0.364397  -0.003696   0.363040  -0.020592   4.755011
     7  C   -0.024261   0.362942   0.359988  -0.003989  -0.022156  -0.024325
     8  O    0.000000  -0.000646   0.266929  -0.000615  -0.018172   0.000056
     9  C    0.000000   0.000003  -0.019019  -0.020889   0.359233   0.000605
    10  C    0.000000   0.000000   0.000556  -0.002723  -0.020495   0.000015
    11  C    0.000000   0.000000  -0.002727   0.000598  -0.021320  -0.000004
    12  H    0.382397  -0.020240  -0.000017   0.000013   0.000000  -0.002242
    13  H    0.381963  -0.020755   0.000007   0.000008   0.000001  -0.002239
    14  H    0.382303  -0.020263   0.000012  -0.000018   0.000000   0.001301
    15  H   -0.024054   0.382762  -0.001664  -0.001714   0.000075  -0.023795
    16  H   -0.000015   0.001224   0.376589   0.001155  -0.024702   0.000014
    17  H   -0.000016   0.001291   0.001169   0.383366  -0.020440  -0.023294
    18  H    0.000004  -0.001645  -0.001553   0.381154  -0.022269  -0.022289
    19  H   -0.000005   0.000077  -0.022468  -0.023725   0.377141  -0.001746
    20  H   -0.002626  -0.022747   0.000053  -0.023204  -0.001658   0.380906
    21  H   -0.001993  -0.021472   0.000006  -0.021639   0.001186   0.382697
    22  H   -0.002642  -0.022120  -0.021155   0.000081  -0.001220  -0.001771
    23  H   -0.002029  -0.021969  -0.021384   0.000007   0.001131   0.001282
    24  H    0.000000   0.000023  -0.040518   0.000046  -0.001368  -0.000007
    25  H    0.000000   0.000001  -0.001203  -0.002073  -0.022883   0.000004
    26  H    0.000000   0.000000   0.000010  -0.000026  -0.002521  -0.000003
    27  H    0.000000   0.000000  -0.000001  -0.001238  -0.001028   0.000006
    28  H    0.000000   0.000000  -0.000012   0.000037   0.001092   0.000000
    29  H    0.000000   0.000000  -0.000055   0.000009  -0.002374   0.000000
    30  H    0.000000   0.000000  -0.001083   0.000000  -0.001132   0.000000
    31  H    0.000000   0.000000   0.000036  -0.000013   0.001107   0.000000
              7          8          9         10         11         12
     1  C   -0.024261   0.000000   0.000000   0.000000   0.000000   0.382397
     2  C    0.362942  -0.000646   0.000003   0.000000   0.000000  -0.020240
     3  C    0.359988   0.266929  -0.019019   0.000556  -0.002727  -0.000017
     4  C   -0.003989  -0.000615  -0.020889  -0.002723   0.000598   0.000013
     5  C   -0.022156  -0.018172   0.359233  -0.020495  -0.021320   0.000000
     6  C   -0.024325   0.000056   0.000605   0.000015  -0.000004  -0.002242
     7  C    4.761611  -0.019234   0.000541  -0.000003   0.000011   0.001288
     8  O   -0.019234   7.848295  -0.001072   0.000001  -0.000060   0.000000
     9  C    0.000541  -0.001072   4.745326   0.364496   0.363514   0.000000
    10  C   -0.000003   0.000001   0.364496   4.742582  -0.027140   0.000000
    11  C    0.000011  -0.000060   0.363514  -0.027140   4.747109   0.000000
    12  H    0.001288   0.000000   0.000000   0.000000   0.000000   0.630966
    13  H   -0.002228   0.000000   0.000000   0.000000   0.000000  -0.021799
    14  H   -0.002215   0.000000   0.000000   0.000000   0.000000  -0.021600
    15  H   -0.023282   0.000279  -0.000003   0.000000   0.000000  -0.002274
    16  H   -0.024959  -0.018131  -0.001400  -0.000003  -0.001046   0.000000
    17  H    0.000012  -0.000004  -0.001562  -0.001410   0.000003  -0.000001
    18  H    0.000071   0.000251  -0.002190   0.000009   0.000008   0.000001
    19  H   -0.001447   0.000557  -0.023166  -0.002399  -0.001755   0.000000
    20  H   -0.001798  -0.000001   0.000003   0.000001   0.000000  -0.000012
    21  H    0.001276  -0.000001  -0.000013   0.000000   0.000000   0.000245
    22  H    0.380707   0.000586   0.000006   0.000000   0.000001   0.000017
    23  H    0.381940  -0.000854  -0.000013   0.000000   0.000000   0.000013
    24  H    0.002647   0.258366  -0.000575   0.000000  -0.000226   0.000000
    25  H   -0.000005  -0.000186   0.380414  -0.024452  -0.024519   0.000000
    26  H    0.000000   0.000000  -0.020837   0.381900  -0.001470   0.000000
    27  H    0.000000   0.000000  -0.019475   0.383034   0.001360   0.000000
    28  H    0.000000   0.000000  -0.019604   0.382578  -0.003802   0.000000
    29  H   -0.000003   0.000003  -0.020655  -0.001568   0.382140   0.000000
    30  H    0.000007  -0.000147  -0.019856   0.001371   0.382141   0.000000
    31  H    0.000000   0.000001  -0.019512  -0.003699   0.382714   0.000000
             13         14         15         16         17         18
     1  C    0.381963   0.382303  -0.024054  -0.000015  -0.000016   0.000004
     2  C   -0.020755  -0.020263   0.382762   0.001224   0.001291  -0.001645
     3  C    0.000007   0.000012  -0.001664   0.376589   0.001169  -0.001553
     4  C    0.000008  -0.000018  -0.001714   0.001155   0.383366   0.381154
     5  C    0.000001   0.000000   0.000075  -0.024702  -0.020440  -0.022269
     6  C   -0.002239   0.001301  -0.023795   0.000014  -0.023294  -0.022289
     7  C   -0.002228  -0.002215  -0.023282  -0.024959   0.000012   0.000071
     8  O    0.000000   0.000000   0.000279  -0.018131  -0.000004   0.000251
     9  C    0.000000   0.000000  -0.000003  -0.001400  -0.001562  -0.002190
    10  C    0.000000   0.000000   0.000000  -0.000003  -0.001410   0.000009
    11  C    0.000000   0.000000   0.000000  -0.001046   0.000003   0.000008
    12  H   -0.021799  -0.021600  -0.002274   0.000000  -0.000001   0.000001
    13  H    0.633434  -0.021807   0.001882  -0.000001   0.000000  -0.000001
    14  H   -0.021807   0.630716  -0.002292  -0.000001   0.000000   0.000000
    15  H    0.001882  -0.002292   0.638034   0.000005   0.000004   0.000265
    16  H   -0.000001  -0.000001   0.000005   0.662164  -0.000030   0.000004
    17  H    0.000000   0.000000   0.000004  -0.000030   0.642858  -0.023420
    18  H   -0.000001   0.000000   0.000265   0.000004  -0.023420   0.637374
    19  H    0.000000   0.000000   0.000004  -0.001932  -0.002633   0.001874
    20  H    0.000377   0.000016   0.001898  -0.000010  -0.003071   0.001935
    21  H   -0.000002   0.000012  -0.002632   0.000002  -0.002045  -0.002821
    22  H    0.000388  -0.000016   0.001865  -0.002553  -0.000009   0.000004
    23  H   -0.000008   0.000255  -0.002683  -0.002126   0.000002  -0.000008
    24  H    0.000000   0.000000  -0.000030  -0.004906  -0.000004   0.000008
    25  H    0.000000   0.000000   0.000000   0.000064   0.000038   0.000342
    26  H    0.000000   0.000000   0.000000   0.000001   0.000018   0.000009
    27  H    0.000000   0.000000   0.000000   0.000000  -0.001319   0.000042
    28  H    0.000000   0.000000   0.000000   0.000000   0.000018  -0.000006
    29  H    0.000000   0.000000   0.000000  -0.000035   0.000001   0.000000
    30  H    0.000000   0.000000   0.000000  -0.001222   0.000000   0.000001
    31  H    0.000000   0.000000   0.000000   0.000015   0.000000   0.000000
             19         20         21         22         23         24
     1  C   -0.000005  -0.002626  -0.001993  -0.002642  -0.002029   0.000000
     2  C    0.000077  -0.022747  -0.021472  -0.022120  -0.021969   0.000023
     3  C   -0.022468   0.000053   0.000006  -0.021155  -0.021384  -0.040518
     4  C   -0.023725  -0.023204  -0.021639   0.000081   0.000007   0.000046
     5  C    0.377141  -0.001658   0.001186  -0.001220   0.001131  -0.001368
     6  C   -0.001746   0.380906   0.382697  -0.001771   0.001282  -0.000007
     7  C   -0.001447  -0.001798   0.001276   0.380707   0.381940   0.002647
     8  O    0.000557  -0.000001  -0.000001   0.000586  -0.000854   0.258366
     9  C   -0.023166   0.000003  -0.000013   0.000006  -0.000013  -0.000575
    10  C   -0.002399   0.000001   0.000000   0.000000   0.000000   0.000000
    11  C   -0.001755   0.000000   0.000000   0.000001   0.000000  -0.000226
    12  H    0.000000  -0.000012   0.000245   0.000017   0.000013   0.000000
    13  H    0.000000   0.000377  -0.000002   0.000388  -0.000008   0.000000
    14  H    0.000000   0.000016   0.000012  -0.000016   0.000255   0.000000
    15  H    0.000004   0.001898  -0.002632   0.001865  -0.002683  -0.000030
    16  H   -0.001932  -0.000010   0.000002  -0.002553  -0.002126  -0.004906
    17  H   -0.002633  -0.003071  -0.002045  -0.000009   0.000002  -0.000004
    18  H    0.001874   0.001935  -0.002821   0.000004  -0.000008   0.000008
    19  H    0.654679   0.000332   0.000004  -0.000027   0.000012  -0.000025
    20  H    0.000332   0.648771  -0.023536   0.000329   0.000002   0.000000
    21  H    0.000004  -0.023536   0.641274   0.000004  -0.000035   0.000000
    22  H   -0.000027   0.000329   0.000004   0.640396  -0.022363  -0.000079
    23  H    0.000012   0.000002  -0.000035  -0.022363   0.630512   0.000052
    24  H   -0.000025   0.000000   0.000000  -0.000079   0.000052   0.609607
    25  H    0.001779  -0.000001   0.000000   0.000000   0.000000  -0.000808
    26  H    0.000413   0.000000   0.000000   0.000000   0.000000   0.000000
    27  H    0.000028   0.000001   0.000001   0.000000   0.000000   0.000000
    28  H    0.000009   0.000000   0.000000   0.000000   0.000000   0.000001
    29  H    0.000365   0.000000   0.000000   0.000000   0.000000  -0.000002
    30  H    0.000027   0.000000   0.000000   0.000001   0.000001   0.000002
    31  H   -0.000001   0.000000   0.000000   0.000000   0.000000  -0.000006
             25         26         27         28         29         30
     1  C    0.000000   0.000000   0.000000   0.000000   0.000000   0.000000
     2  C    0.000001   0.000000   0.000000   0.000000   0.000000   0.000000
     3  C   -0.001203   0.000010  -0.000001  -0.000012  -0.000055  -0.001083
     4  C   -0.002073  -0.000026  -0.001238   0.000037   0.000009   0.000000
     5  C   -0.022883  -0.002521  -0.001028   0.001092  -0.002374  -0.001132
     6  C    0.000004  -0.000003   0.000006   0.000000   0.000000   0.000000
     7  C   -0.000005   0.000000   0.000000   0.000000  -0.000003   0.000007
     8  O   -0.000186   0.000000   0.000000   0.000000   0.000003  -0.000147
     9  C    0.380414  -0.020837  -0.019475  -0.019604  -0.020655  -0.019856
    10  C   -0.024452   0.381900   0.383034   0.382578  -0.001568   0.001371
    11  C   -0.024519  -0.001470   0.001360  -0.003802   0.382140   0.382141
    12  H    0.000000   0.000000   0.000000   0.000000   0.000000   0.000000
    13  H    0.000000   0.000000   0.000000   0.000000   0.000000   0.000000
    14  H    0.000000   0.000000   0.000000   0.000000   0.000000   0.000000
    15  H    0.000000   0.000000   0.000000   0.000000   0.000000   0.000000
    16  H    0.000064   0.000001   0.000000   0.000000  -0.000035  -0.001222
    17  H    0.000038   0.000018  -0.001319   0.000018   0.000001   0.000000
    18  H    0.000342   0.000009   0.000042  -0.000006   0.000000   0.000001
    19  H    0.001779   0.000413   0.000028   0.000009   0.000365   0.000027
    20  H   -0.000001   0.000000   0.000001   0.000000   0.000000   0.000000
    21  H    0.000000   0.000000   0.000001   0.000000   0.000000   0.000000
    22  H    0.000000   0.000000   0.000000   0.000000   0.000000   0.000001
    23  H    0.000000   0.000000   0.000000   0.000000   0.000000   0.000001
    24  H   -0.000808   0.000000   0.000000   0.000001  -0.000002   0.000002
    25  H    0.653517   0.001885  -0.003003  -0.001531   0.001885  -0.002845
    26  H    0.001885   0.630169  -0.021418  -0.021579   0.000269  -0.000003
    27  H   -0.003003  -0.021418   0.628916  -0.022580  -0.000001  -0.000039
    28  H   -0.001531  -0.021579  -0.022580   0.630953   0.000009   0.000060
    29  H    0.001885   0.000269  -0.000001   0.000009   0.627881  -0.021602
    30  H   -0.002845  -0.000003  -0.000039   0.000060  -0.021602   0.639151
    31  H   -0.001593   0.000010   0.000058  -0.000079  -0.021384  -0.022713
             31
     1  C    0.000000
     2  C    0.000000
     3  C    0.000036
     4  C   -0.000013
     5  C    0.001107
     6  C    0.000000
     7  C    0.000000
     8  O    0.000001
     9  C   -0.019512
    10  C   -0.003699
    11  C    0.382714
    12  H    0.000000
    13  H    0.000000
    14  H    0.000000
    15  H    0.000000
    16  H    0.000015
    17  H    0.000000
    18  H    0.000000
    19  H   -0.000001
    20  H    0.000000
    21  H    0.000000
    22  H    0.000000
    23  H    0.000000
    24  H   -0.000006
    25  H   -0.001593
    26  H    0.000010
    27  H    0.000058
    28  H   -0.000079
    29  H   -0.021384
    30  H   -0.022713
    31  H    0.628945
 Mulliken atomic charges:
              1
     1  C   -0.172092
     2  C   -0.023242
     3  C    0.075264
     4  C   -0.101593
     5  C   -0.039483
     6  C   -0.098896
     7  C   -0.103135
     8  O   -0.316200
     9  C   -0.024298
    10  C   -0.172652
    11  C   -0.175529
    12  H    0.053244
    13  H    0.050780
    14  H    0.053596
    15  H    0.057348
    16  H    0.041836
    17  H    0.050476
    18  H    0.052846
    19  H    0.044026
    20  H    0.044040
    21  H    0.049480
    22  H    0.049570
    23  H    0.058265
    24  H    0.177800
    25  H    0.045174
    26  H    0.053172
    27  H    0.056657
    28  H    0.054435
    29  H    0.055115
    30  H    0.047882
    31  H    0.056114
 Sum of Mulliken atomic charges =   0.00000
 Mulliken charges with hydrogens summed into heavy atoms:
              1
     1  C   -0.014472
     2  C    0.034107
     3  C    0.117100
     4  C    0.001729
     5  C    0.004543
     6  C   -0.005376
     7  C    0.004699
     8  O   -0.138400
     9  C    0.020876
    10  C   -0.008388
    11  C   -0.016418
 Sum of Mulliken charges with hydrogens summed into heavy atoms =   0.00000
 Electronic spatial extent (au):  <R**2>=           2195.3144
 Charge=              0.0000 electrons
 Dipole moment (field-independent basis, Debye):
    X=              1.0940    Y=              0.1921    Z=             -0.7686  Tot=              1.3507
 Quadrupole moment (field-independent basis, Debye-Ang):
   XX=            -67.1385   YY=            -68.0861   ZZ=            -68.0094
   XY=             -1.9492   XZ=              1.5541   YZ=              0.9478
 Traceless Quadrupole moment (field-independent basis, Debye-Ang):
   XX=              0.6061   YY=             -0.3414   ZZ=             -0.2647
   XY=             -1.9492   XZ=              1.5541   YZ=              0.9478
 Octapole moment (field-independent basis, Debye-Ang**2):
  XXX=              5.3599  YYY=             -9.9503  ZZZ=              4.4060  XYY=              2.2950
  XXY=             -5.8888  XXZ=              6.2269  XZZ=              2.1327  YZZ=             -0.7858
  YYZ=              1.8775  XYZ=             -3.8656
 Hexadecapole moment (field-independent basis, Debye-Ang**3):
 XXXX=          -2021.8748 YYYY=           -586.6143 ZZZZ=           -212.4972 XXXY=              1.4302
 XXXZ=             -0.3109 YYYX=             -7.1847 YYYZ=             -8.7715 ZZZX=              3.2504
 ZZZY=            -12.2408 XXYY=           -432.0679 XXZZ=           -369.9271 YYZZ=           -135.7515
 XXYZ=             -6.0021 YYXZ=              5.5793 ZZXY=             -5.5124
 N-N= 6.920498996047D+02 E-N=-2.456115168736D+03  KE= 4.555244664669D+02
 ******************************Gaussian NBO Version 3.1******************************
             N A T U R A L   A T O M I C   O R B I T A L   A N D
          N A T U R A L   B O N D   O R B I T A L   A N A L Y S I S
 ******************************Gaussian NBO Version 3.1******************************
       /RESON  / : Allow strongly delocalized NBO set
       /NLMO   / : Form Natural Localized Molecular Orbitals
       /NMR /    : Analyze NMR Sheilding Tensor 

 Analyzing the SCF density

 Job title: comment                                                         

 Storage needed:     19864 in NPA,     23691 in NBO,     45933 in NLMO (  33549317 available)


 NATURAL POPULATIONS:  Natural atomic orbital occupancies 
                                                          
   NAO  Atom  No  lang   Type(AO)    Occupancy      Energy
 ----------------------------------------------------------
     1    C    1  S      Cor( 1S)     1.99997     -10.95994
     2    C    1  S      Val( 2S)     1.07956      -0.17641
     3    C    1  px     Val( 2p)     0.99673       0.09171
     4    C    1  py     Val( 2p)     1.02809       0.08903
     5    C    1  pz     Val( 2p)     1.02256       0.09074

     6    C    2  S      Cor( 1S)     1.99997     -10.98103
     7    C    2  S      Val( 2S)     1.07839      -0.18318
     8    C    2  px     Val( 2p)     0.95068       0.11814
     9    C    2  py     Val( 2p)     0.95998       0.11610
    10    C    2  pz     Val( 2p)     0.99786       0.10826

    11    C    3  S      Cor( 1S)     1.99988     -11.03279
    12    C    3  S      Val( 2S)     1.08803      -0.21586
    13    C    3  px     Val( 2p)     0.98050       0.08132
    14    C    3  py     Val( 2p)     0.95894       0.09490
    15    C    3  pz     Val( 2p)     0.82947       0.12860

    16    C    4  S      Cor( 1S)     1.99996     -10.97031
    17    C    4  S      Val( 2S)     1.08470      -0.18508
    18    C    4  px     Val( 2p)     0.97743       0.10112
    19    C    4  py     Val( 2p)     0.99552       0.10085
    20    C    4  pz     Val( 2p)     1.00671       0.09785

    21    C    5  S      Cor( 1S)     1.99995     -10.98846
    22    C    5  S      Val( 2S)     1.10432      -0.21357
    23    C    5  px     Val( 2p)     0.95267       0.10492
    24    C    5  py     Val( 2p)     0.97027       0.09906
    25    C    5  pz     Val( 2p)     0.99067       0.10020

    26    C    6  S      Cor( 1S)     1.99996     -10.96891
    27    C    6  S      Val( 2S)     1.08277      -0.18196
    28    C    6  px     Val( 2p)     0.97749       0.10350
    29    C    6  py     Val( 2p)     0.98912       0.10095
    30    C    6  pz     Val( 2p)     1.01220       0.09917

    31    C    7  S      Cor( 1S)     1.99996     -10.97382
    32    C    7  S      Val( 2S)     1.09008      -0.19270
    33    C    7  px     Val( 2p)     0.97737       0.09557
    34    C    7  py     Val( 2p)     1.00882       0.09013
    35    C    7  pz     Val( 2p)     1.00246       0.09688

    36    O    8  S      Cor( 1S)     1.99999     -20.13998
    37    O    8  S      Val( 2S)     1.74839      -0.99744
    38    O    8  px     Val( 2p)     1.38716      -0.14108
    39    O    8  py     Val( 2p)     1.85118      -0.31892
    40    O    8  pz     Val( 2p)     1.35055      -0.11257

    41    C    9  S      Cor( 1S)     1.99996     -10.99599
    42    C    9  S      Val( 2S)     1.08644      -0.20316
    43    C    9  px     Val( 2p)     0.95316       0.10507
    44    C    9  py     Val( 2p)     0.95481       0.10321
    45    C    9  pz     Val( 2p)     0.98791       0.09998

    46    C   10  S      Cor( 1S)     1.99997     -10.96710
    47    C   10  S      Val( 2S)     1.08128      -0.18506
    48    C   10  px     Val( 2p)     1.01856       0.08198
    49    C   10  py     Val( 2p)     1.00088       0.08478
    50    C   10  pz     Val( 2p)     1.02763       0.08316

    51    C   11  S      Cor( 1S)     1.99997     -10.97055
    52    C   11  S      Val( 2S)     1.08140      -0.18920
    53    C   11  px     Val( 2p)     1.02064       0.07644
    54    C   11  py     Val( 2p)     1.00632       0.08198
    55    C   11  pz     Val( 2p)     1.02275       0.07764

    56    H   12  S      Val( 1S)     0.96393       0.07882

    57    H   13  S      Val( 1S)     0.96633       0.07679

    58    H   14  S      Val( 1S)     0.96366       0.07938

    59    H   15  S      Val( 1S)     0.96758       0.08184

    60    H   16  S      Val( 1S)     0.99398       0.04990

    61    H   17  S      Val( 1S)     0.97074       0.07594

    62    H   18  S      Val( 1S)     0.96871       0.07814

    63    H   19  S      Val( 1S)     0.98096       0.05998

    64    H   20  S      Val( 1S)     0.97641       0.07093

    65    H   21  S      Val( 1S)     0.97104       0.07480

    66    H   22  S      Val( 1S)     0.97063       0.06728

    67    H   23  S      Val( 1S)     0.96290       0.07794

    68    H   24  S      Val( 1S)     0.80984       0.07917

    69    H   25  S      Val( 1S)     0.98010       0.05940

    70    H   26  S      Val( 1S)     0.96430       0.07163

    71    H   27  S      Val( 1S)     0.96123       0.07710

    72    H   28  S      Val( 1S)     0.96292       0.07258

    73    H   29  S      Val( 1S)     0.96232       0.06924

    74    H   30  S      Val( 1S)     0.96912       0.06534

    75    H   31  S      Val( 1S)     0.96127       0.07049


 Summary of Natural Population Analysis:                  
                                                          
                                       Natural Population 
                Natural  -----------------------------------------------
    Atom  No    Charge         Core      Valence    Rydberg      Total
 -----------------------------------------------------------------------
      C    1   -0.12692      1.99997     4.12695    0.00000     6.12692
      C    2    0.01311      1.99997     3.98692    0.00000     5.98689
      C    3    0.14318      1.99988     3.85694    0.00000     5.85682
      C    4   -0.06433      1.99996     4.06437    0.00000     6.06433
      C    5   -0.01790      1.99995     4.01794    0.00000     6.01790
      C    6   -0.06155      1.99996     4.06158    0.00000     6.06155
      C    7   -0.07868      1.99996     4.07872    0.00000     6.07868
      O    8   -0.33728      1.99999     6.33728    0.00000     8.33728
      C    9    0.01772      1.99996     3.98232    0.00000     5.98228
      C   10   -0.12831      1.99997     4.12834    0.00000     6.12831
      C   11   -0.13108      1.99997     4.13111    0.00000     6.13108
      H   12    0.03607      0.00000     0.96393    0.00000     0.96393
      H   13    0.03367      0.00000     0.96633    0.00000     0.96633
      H   14    0.03634      0.00000     0.96366    0.00000     0.96366
      H   15    0.03242      0.00000     0.96758    0.00000     0.96758
      H   16    0.00602      0.00000     0.99398    0.00000     0.99398
      H   17    0.02926      0.00000     0.97074    0.00000     0.97074
      H   18    0.03129      0.00000     0.96871    0.00000     0.96871
      H   19    0.01904      0.00000     0.98096    0.00000     0.98096
      H   20    0.02359      0.00000     0.97641    0.00000     0.97641
      H   21    0.02896      0.00000     0.97104    0.00000     0.97104
      H   22    0.02937      0.00000     0.97063    0.00000     0.97063
      H   23    0.03710      0.00000     0.96290    0.00000     0.96290
      H   24    0.19016      0.00000     0.80984    0.00000     0.80984
      H   25    0.01990      0.00000     0.98010    0.00000     0.98010
      H   26    0.03570      0.00000     0.96430    0.00000     0.96430
      H   27    0.03877      0.00000     0.96123    0.00000     0.96123
      H   28    0.03708      0.00000     0.96292    0.00000     0.96292
      H   29    0.03768      0.00000     0.96232    0.00000     0.96232
      H   30    0.03088      0.00000     0.96912    0.00000     0.96912
      H   31    0.03873      0.00000     0.96127    0.00000     0.96127
 =======================================================================
   * Total *    0.00000     21.99954    66.00046    0.00000    88.00000

                                 Natural Population      
 --------------------------------------------------------
   Core                      21.99954 ( 99.9979% of  22)
   Valence                   66.00046 (100.0007% of  66)
   Natural Minimal Basis     88.00000 (100.0000% of  88)
   Natural Rydberg Basis      0.00000 (  0.0000% of  88)
 --------------------------------------------------------

    Atom  No          Natural Electron Configuration
 ----------------------------------------------------------------------------
      C    1      [core]2S( 1.08)2p( 3.05)
      C    2      [core]2S( 1.08)2p( 2.91)
      C    3      [core]2S( 1.09)2p( 2.77)
      C    4      [core]2S( 1.08)2p( 2.98)
      C    5      [core]2S( 1.10)2p( 2.91)
      C    6      [core]2S( 1.08)2p( 2.98)
      C    7      [core]2S( 1.09)2p( 2.99)
      O    8      [core]2S( 1.75)2p( 4.59)
      C    9      [core]2S( 1.09)2p( 2.90)
      C   10      [core]2S( 1.08)2p( 3.05)
      C   11      [core]2S( 1.08)2p( 3.05)
      H   12            1S( 0.96)
      H   13            1S( 0.97)
      H   14            1S( 0.96)
      H   15            1S( 0.97)
      H   16            1S( 0.99)
      H   17            1S( 0.97)
      H   18            1S( 0.97)
      H   19            1S( 0.98)
      H   20            1S( 0.98)
      H   21            1S( 0.97)
      H   22            1S( 0.97)
      H   23            1S( 0.96)
      H   24            1S( 0.81)
      H   25            1S( 0.98)
      H   26            1S( 0.96)
      H   27            1S( 0.96)
      H   28            1S( 0.96)
      H   29            1S( 0.96)
      H   30            1S( 0.97)
      H   31            1S( 0.96)


 NATURAL BOND ORBITAL ANALYSIS:

                       Occupancies       Lewis Structure    Low   High
           Occ.    -------------------  -----------------   occ   occ
  Cycle   Thresh.   Lewis   Non-Lewis     CR  BD  3C  LP    (L)   (NL)   Dev
 =============================================================================
   1(1)    1.90    87.63733   0.36267     11  31   0   2     0      0    0.02
 -----------------------------------------------------------------------------

 Structure accepted: No low occupancy Lewis orbitals

 --------------------------------------------------------
   Core                     21.99954 ( 99.998% of  22)
   Valence Lewis            65.63779 ( 99.451% of  66)
  ==================       ============================
   Total Lewis              87.63733 ( 99.588% of  88)
  -----------------------------------------------------
   Valence non-Lewis         0.36267 (  0.412% of  88)
   Rydberg non-Lewis         0.00000 (  0.000% of  88)
  ==================       ============================
   Total non-Lewis           0.36267 (  0.412% of  88)
 --------------------------------------------------------


       (Occupancy)   Bond orbital/ Coefficients/ Hybrids
 ---------------------------------------------------------------------------------
     1. (1.98884) BD ( 1) C   1 - C   2  
                ( 50.99%)   0.7141* C   1 s( 25.78%)p 2.88( 74.22%)
                                            0.0001  0.5078  0.8141 -0.0721  0.2724
                ( 49.01%)   0.7001* C   2 s( 25.11%)p 2.98( 74.89%)
                                            0.0000  0.5011 -0.8090  0.0766 -0.2976
     2. (1.99499) BD ( 1) C   1 - H  12  
                ( 51.82%)   0.7198* C   1 s( 24.72%)p 3.04( 75.28%)
                                            0.0000  0.4972 -0.4102  0.6102  0.4606
                ( 48.18%)   0.6942* H  12 s(100.00%)
                                            1.0000
     3. (1.99552) BD ( 1) C   1 - H  13  
                ( 51.73%)   0.7192* C   1 s( 24.79%)p 3.03( 75.21%)
                                            0.0000  0.4979 -0.0104  0.2204 -0.8387
                ( 48.27%)   0.6948* H  13 s(100.00%)
                                            1.0000
     4. (1.99504) BD ( 1) C   1 - H  14  
                ( 51.83%)   0.7199* C   1 s( 24.70%)p 3.05( 75.30%)
                                            0.0000  0.4970 -0.4109 -0.7576  0.1011
                ( 48.17%)   0.6940* H  14 s(100.00%)
                                            1.0000
     5. (1.98578) BD ( 1) C   2 - C   6  
                ( 49.52%)   0.7037* C   2 s( 24.99%)p 3.00( 75.01%)
                                            0.0000  0.4999  0.4139  0.7555 -0.0890
                ( 50.48%)   0.7105* C   6 s( 25.41%)p 2.93( 74.59%)
                                            0.0001  0.5041 -0.4061 -0.7582  0.0777
     6. (1.98516) BD ( 1) C   2 - C   7  
                ( 49.30%)   0.7021* C   2 s( 24.98%)p 3.00( 75.02%)
                                            0.0000  0.4998  0.4169 -0.6120 -0.4492
                ( 50.70%)   0.7120* C   7 s( 25.20%)p 2.97( 74.80%)
                                            0.0001  0.5020 -0.4016  0.6253  0.4424
     7. (1.98480) BD ( 1) C   2 - H  15  
                ( 51.55%)   0.7180* C   2 s( 24.91%)p 3.01( 75.09%)
                                            0.0000  0.4991 -0.0198 -0.2207  0.8377
                ( 48.45%)   0.6960* H  15 s(100.00%)
                                            1.0000
     8. (1.98240) BD ( 1) C   3 - C   5  
                ( 49.93%)   0.7066* C   3 s( 25.97%)p 2.85( 74.03%)
                                            0.0001  0.5096  0.4181  0.7498 -0.0568
                ( 50.07%)   0.7076* C   5 s( 25.04%)p 2.99( 74.96%)
                                            0.0000  0.5004 -0.4022 -0.7604  0.0979
     9. (1.98554) BD ( 1) C   3 - C   7  
                ( 50.05%)   0.7075* C   3 s( 26.28%)p 2.80( 73.72%)
                                            0.0000  0.5127 -0.8257  0.0957 -0.2149
                ( 49.95%)   0.7067* C   7 s( 24.99%)p 3.00( 75.01%)
                                            0.0001  0.4999  0.8256 -0.0525  0.2565
    10. (1.98927) BD ( 1) C   3 - O   8  
                ( 41.00%)   0.6403* C   3 s( 22.23%)p 3.50( 77.77%)
                                            0.0000  0.4714  0.0428 -0.2811  0.8348
                ( 59.00%)   0.7681* O   8 s( 16.44%)p 5.08( 83.56%)
                                            0.0000  0.4054  0.0453  0.3015 -0.8618
    11. (1.98805) BD ( 1) C   3 - H  16  
                ( 50.57%)   0.7111* C   3 s( 25.52%)p 2.92( 74.48%)
                                            0.0000  0.5052  0.3762 -0.5912 -0.5037
                ( 49.43%)   0.7031* H  16 s(100.00%)
                                            1.0000
    12. (1.98454) BD ( 1) C   4 - C   5  
                ( 50.17%)   0.7083* C   4 s( 25.30%)p 2.95( 74.70%)
                                            0.0001  0.5030  0.4157 -0.6196 -0.4361
                ( 49.83%)   0.7059* C   5 s( 25.11%)p 2.98( 74.89%)
                                            0.0000  0.5011 -0.4160  0.6083  0.4537
    13. (1.98897) BD ( 1) C   4 - C   6  
                ( 50.04%)   0.7074* C   4 s( 25.13%)p 2.98( 74.87%)
                                            0.0000  0.5013 -0.8264  0.0316 -0.2545
                ( 49.96%)   0.7068* C   6 s( 25.16%)p 2.97( 74.84%)
                                            0.0000  0.5016  0.8252 -0.0833  0.2459
    14. (1.98909) BD ( 1) C   4 - H  17  
                ( 51.43%)   0.7172* C   4 s( 24.77%)p 3.04( 75.23%)
                                            0.0000  0.4977  0.3783  0.7654 -0.1527
                ( 48.57%)   0.6969* H  17 s(100.00%)
                                            1.0000
    15. (1.99090) BD ( 1) C   4 - H  18  
                ( 51.60%)   0.7183* C   4 s( 24.79%)p 3.03( 75.21%)
                                            0.0000  0.4979  0.0339 -0.1710  0.8495
                ( 48.40%)   0.6957* H  18 s(100.00%)
                                            1.0000
    16. (1.97869) BD ( 1) C   5 - C   9  
                ( 49.77%)   0.7055* C   5 s( 25.37%)p 2.94( 74.63%)
                                            0.0001  0.5036  0.8156 -0.0642  0.2776
                ( 50.23%)   0.7087* C   9 s( 25.39%)p 2.94( 74.61%)
                                            0.0001  0.5039 -0.8201  0.0468 -0.2673
    17. (1.98404) BD ( 1) C   5 - H  19  
                ( 50.87%)   0.7132* C   5 s( 24.48%)p 3.08( 75.52%)
                                            0.0000  0.4948 -0.0020  0.2184 -0.8411
                ( 49.13%)   0.7009* H  19 s(100.00%)
                                            1.0000
    18. (1.99076) BD ( 1) C   6 - H  20  
                ( 51.21%)   0.7156* C   6 s( 24.56%)p 3.07( 75.44%)
                                            0.0000  0.4955 -0.0281  0.2597 -0.8284
                ( 48.79%)   0.6985* H  20 s(100.00%)
                                            1.0000
    19. (1.98978) BD ( 1) C   6 - H  21  
                ( 51.42%)   0.7171* C   6 s( 24.87%)p 3.02( 75.13%)
                                            0.0000  0.4987 -0.3915  0.5922  0.4973
                ( 48.58%)   0.6970* H  21 s(100.00%)
                                            1.0000
    20. (1.98890) BD ( 1) C   7 - H  22  
                ( 51.43%)   0.7171* C   7 s( 24.87%)p 3.02( 75.13%)
                                            0.0000  0.4987 -0.0273  0.1815 -0.8471
                ( 48.57%)   0.6970* H  22 s(100.00%)
                                            1.0000
    21. (1.98898) BD ( 1) C   7 - H  23  
                ( 51.81%)   0.7198* C   7 s( 24.94%)p 3.01( 75.06%)
                                            0.0000  0.4994 -0.3954 -0.7572  0.1445
                ( 48.19%)   0.6942* H  23 s(100.00%)
                                            1.0000
    22. (1.98928) BD ( 1) O   8 - H  24  
                ( 59.53%)   0.7716* O   8 s( 16.84%)p 4.94( 83.16%)
                                            0.0000  0.4103  0.8683 -0.2294  0.1585
                ( 40.47%)   0.6361* H  24 s(100.00%)
                                            1.0000
    23. (1.98879) BD ( 1) C   9 - C  10  
                ( 49.19%)   0.7013* C   9 s( 25.06%)p 2.99( 74.94%)
                                            0.0000  0.5006  0.3973  0.7557 -0.1431
                ( 50.81%)   0.7128* C  10 s( 25.76%)p 2.88( 74.24%)
                                            0.0001  0.5076 -0.4274 -0.7384  0.1205
    24. (1.98949) BD ( 1) C   9 - C  11  
                ( 48.86%)   0.6990* C   9 s( 24.86%)p 3.02( 75.14%)
                                            0.0000  0.4986  0.4115 -0.6285 -0.4326
                ( 51.14%)   0.7151* C  11 s( 25.81%)p 2.87( 74.19%)
                                            0.0001  0.5080 -0.4370  0.6190  0.4095
    25. (1.98456) BD ( 1) C   9 - H  25  
                ( 50.93%)   0.7136* C   9 s( 24.70%)p 3.05( 75.30%)
                                            0.0000  0.4970  0.0184 -0.1781  0.8491
                ( 49.07%)   0.7005* H  25 s(100.00%)
                                            1.0000
    26. (1.99558) BD ( 1) C  10 - H  26  
                ( 51.83%)   0.7199* C  10 s( 24.87%)p 3.02( 75.13%)
                                            0.0000  0.4987 -0.0786  0.2536 -0.8251
                ( 48.17%)   0.6941* H  26 s(100.00%)
                                            1.0000
    27. (1.99465) BD ( 1) C  10 - H  27  
                ( 51.96%)   0.7208* C  10 s( 24.72%)p 3.05( 75.28%)
                                            0.0000  0.4971 -0.3241  0.6143  0.5201
                ( 48.04%)   0.6931* H  27 s(100.00%)
                                            1.0000
    28. (1.99431) BD ( 1) C  10 - H  28  
                ( 51.85%)   0.7201* C  10 s( 24.65%)p 3.06( 75.35%)
                                            0.0000  0.4965  0.8403 -0.1149  0.1847
                ( 48.15%)   0.6939* H  28 s(100.00%)
                                            1.0000
    29. (1.99554) BD ( 1) C  11 - H  29  
                ( 51.92%)   0.7206* C  11 s( 24.90%)p 3.02( 75.10%)
                                            0.0000  0.4990 -0.0688  0.1089 -0.8570
                ( 48.08%)   0.6934* H  29 s(100.00%)
                                            1.0000
    30. (1.99415) BD ( 1) C  11 - H  30  
                ( 51.56%)   0.7181* C  11 s( 24.62%)p 3.06( 75.38%)
                                            0.0000  0.4962 -0.3215 -0.7770  0.2160
                ( 48.44%)   0.6960* H  30 s(100.00%)
                                            1.0000
    31. (1.99442) BD ( 1) C  11 - H  31  
                ( 51.94%)   0.7207* C  11 s( 24.67%)p 3.05( 75.33%)
                                            0.0000  0.4967  0.8372  0.0337  0.2263
                ( 48.06%)   0.6932* H  31 s(100.00%)
                                            1.0000
    32. (1.99997) CR ( 1) C   1           s(100.00%)
                                            1.0000  0.0000 -0.0001  0.0000  0.0000
    33. (1.99997) CR ( 1) C   2           s(100.00%)
                                            1.0000  0.0000  0.0000  0.0000  0.0000
    34. (1.99988) CR ( 1) C   3           s(100.00%)
                                            1.0000  0.0000 -0.0001  0.0000  0.0000
    35. (1.99996) CR ( 1) C   4           s(100.00%)
                                            1.0000  0.0000  0.0000  0.0001  0.0000
    36. (1.99995) CR ( 1) C   5           s(100.00%)
                                            1.0000  0.0000  0.0000  0.0000  0.0000
    37. (1.99996) CR ( 1) C   6           s(100.00%)
                                            1.0000  0.0000  0.0000  0.0001  0.0000
    38. (1.99996) CR ( 1) C   7           s(100.00%)
                                            1.0000 -0.0001  0.0000 -0.0001 -0.0001
    39. (1.99999) CR ( 1) O   8           s(100.00%)
                                            1.0000  0.0000  0.0000  0.0000  0.0000
    40. (1.99996) CR ( 1) C   9           s(100.00%)
                                            1.0000  0.0000  0.0001  0.0000  0.0000
    41. (1.99997) CR ( 1) C  10           s(100.00%)
                                            1.0000  0.0000  0.0001  0.0001  0.0000
    42. (1.99997) CR ( 1) C  11           s(100.00%)
                                            1.0000  0.0000  0.0001  0.0000  0.0000
    43. (1.99290) LP ( 1) O   8           s( 66.48%)p 0.50( 33.52%)
                                            0.0000  0.8153 -0.4466  0.0219  0.3677
    44. (1.97408) LP ( 2) O   8           s(  0.25%)p99.99( 99.75%)
                                            0.0000  0.0497 -0.2111 -0.9252 -0.3114
    45. (0.01003) BD*( 1) C   1 - C   2  
                ( 49.01%)   0.7001* C   1 s( 25.78%)p 2.88( 74.22%)
                                           -0.0001 -0.5078 -0.8141  0.0721 -0.2724
                ( 50.99%)  -0.7141* C   2 s( 25.11%)p 2.98( 74.89%)
                                            0.0000 -0.5011  0.8090 -0.0766  0.2976
    46. (0.00512) BD*( 1) C   1 - H  12  
                ( 48.18%)   0.6942* C   1 s( 24.72%)p 3.04( 75.28%)
                                            0.0000 -0.4972  0.4102 -0.6102 -0.4606
                ( 51.82%)  -0.7198* H  12 s(100.00%)
                                           -1.0000
    47. (0.00605) BD*( 1) C   1 - H  13  
                ( 48.27%)   0.6948* C   1 s( 24.79%)p 3.03( 75.21%)
                                            0.0000 -0.4979  0.0104 -0.2204  0.8387
                ( 51.73%)  -0.7192* H  13 s(100.00%)
                                           -1.0000
    48. (0.00517) BD*( 1) C   1 - H  14  
                ( 48.17%)   0.6940* C   1 s( 24.70%)p 3.05( 75.30%)
                                            0.0000 -0.4970  0.4109  0.7576 -0.1011
                ( 51.83%)  -0.7199* H  14 s(100.00%)
                                           -1.0000
    49. (0.01589) BD*( 1) C   2 - C   6  
                ( 50.48%)   0.7105* C   2 s( 24.99%)p 3.00( 75.01%)
                                            0.0000  0.4999  0.4139  0.7555 -0.0890
                ( 49.52%)  -0.7037* C   6 s( 25.41%)p 2.93( 74.59%)
                                            0.0001  0.5041 -0.4061 -0.7582  0.0777
    50. (0.01592) BD*( 1) C   2 - C   7  
                ( 50.70%)   0.7120* C   2 s( 24.98%)p 3.00( 75.02%)
                                            0.0000  0.4998  0.4169 -0.6120 -0.4492
                ( 49.30%)  -0.7021* C   7 s( 25.20%)p 2.97( 74.80%)
                                            0.0001  0.5020 -0.4016  0.6253  0.4424
    51. (0.01172) BD*( 1) C   2 - H  15  
                ( 48.45%)   0.6960* C   2 s( 24.91%)p 3.01( 75.09%)
                                            0.0000 -0.4991  0.0198  0.2207 -0.8377
                ( 51.55%)  -0.7180* H  15 s(100.00%)
                                           -1.0000
    52. (0.03494) BD*( 1) C   3 - C   5  
                ( 50.07%)   0.7076* C   3 s( 25.97%)p 2.85( 74.03%)
                                            0.0001  0.5096  0.4181  0.7498 -0.0568
                ( 49.93%)  -0.7066* C   5 s( 25.04%)p 2.99( 74.96%)
                                            0.0000  0.5004 -0.4022 -0.7604  0.0979
    53. (0.02173) BD*( 1) C   3 - C   7  
                ( 49.95%)   0.7067* C   3 s( 26.28%)p 2.80( 73.72%)
                                            0.0000 -0.5127  0.8257 -0.0957  0.2149
                ( 50.05%)  -0.7075* C   7 s( 24.99%)p 3.00( 75.01%)
                                           -0.0001 -0.4999 -0.8256  0.0525 -0.2565
    54. (0.02195) BD*( 1) C   3 - O   8  
                ( 59.00%)   0.7681* C   3 s( 22.23%)p 3.50( 77.77%)
                                            0.0000  0.4714  0.0428 -0.2811  0.8348
                ( 41.00%)  -0.6403* O   8 s( 16.44%)p 5.08( 83.56%)
                                            0.0000  0.4054  0.0453  0.3015 -0.8618
    55. (0.02232) BD*( 1) C   3 - H  16  
                ( 49.43%)   0.7031* C   3 s( 25.52%)p 2.92( 74.48%)
                                            0.0000 -0.5052 -0.3762  0.5912  0.5037
                ( 50.57%)  -0.7111* H  16 s(100.00%)
                                           -1.0000
    56. (0.01619) BD*( 1) C   4 - C   5  
                ( 49.83%)   0.7059* C   4 s( 25.30%)p 2.95( 74.70%)
                                           -0.0001 -0.5030 -0.4157  0.6196  0.4361
                ( 50.17%)  -0.7083* C   5 s( 25.11%)p 2.98( 74.89%)
                                            0.0000 -0.5011  0.4160 -0.6083 -0.4537
    57. (0.01146) BD*( 1) C   4 - C   6  
                ( 49.96%)   0.7068* C   4 s( 25.13%)p 2.98( 74.87%)
                                            0.0000 -0.5013  0.8264 -0.0316  0.2545
                ( 50.04%)  -0.7074* C   6 s( 25.16%)p 2.97( 74.84%)
                                            0.0000 -0.5016 -0.8252  0.0833 -0.2459
    58. (0.00916) BD*( 1) C   4 - H  17  
                ( 48.57%)   0.6969* C   4 s( 24.77%)p 3.04( 75.23%)
                                            0.0000 -0.4977 -0.3783 -0.7654  0.1527
                ( 51.43%)  -0.7172* H  17 s(100.00%)
                                           -1.0000
    59. (0.00986) BD*( 1) C   4 - H  18  
                ( 48.40%)   0.6957* C   4 s( 24.79%)p 3.03( 75.21%)
                                            0.0000 -0.4979 -0.0339  0.1710 -0.8495
                ( 51.60%)  -0.7183* H  18 s(100.00%)
                                           -1.0000
    60. (0.02203) BD*( 1) C   5 - C   9  
                ( 50.23%)   0.7087* C   5 s( 25.37%)p 2.94( 74.63%)
                                            0.0001  0.5036  0.8156 -0.0642  0.2776
                ( 49.77%)  -0.7055* C   9 s( 25.39%)p 2.94( 74.61%)
                                            0.0001  0.5039 -0.8201  0.0468 -0.2673
    61. (0.01208) BD*( 1) C   5 - H  19  
                ( 49.13%)   0.7009* C   5 s( 24.48%)p 3.08( 75.52%)
                                            0.0000 -0.4948  0.0020 -0.2184  0.8411
                ( 50.87%)  -0.7132* H  19 s(100.00%)
                                           -1.0000
    62. (0.01016) BD*( 1) C   6 - H  20  
                ( 48.79%)   0.6985* C   6 s( 24.56%)p 3.07( 75.44%)
                                            0.0000 -0.4955  0.0281 -0.2597  0.8284
                ( 51.21%)  -0.7156* H  20 s(100.00%)
                                           -1.0000
    63. (0.00859) BD*( 1) C   6 - H  21  
                ( 48.58%)   0.6970* C   6 s( 24.87%)p 3.02( 75.13%)
                                            0.0000 -0.4987  0.3915 -0.5922 -0.4973
                ( 51.42%)  -0.7171* H  21 s(100.00%)
                                           -1.0000
    64. (0.00882) BD*( 1) C   7 - H  22  
                ( 48.57%)   0.6970* C   7 s( 24.87%)p 3.02( 75.13%)
                                            0.0000 -0.4987  0.0273 -0.1815  0.8471
                ( 51.43%)  -0.7171* H  22 s(100.00%)
                                           -1.0000
    65. (0.00857) BD*( 1) C   7 - H  23  
                ( 48.19%)   0.6942* C   7 s( 24.94%)p 3.01( 75.06%)
                                            0.0000 -0.4994  0.3954  0.7572 -0.1445
                ( 51.81%)  -0.7198* H  23 s(100.00%)
                                           -1.0000
    66. (0.00815) BD*( 1) O   8 - H  24  
                ( 40.47%)   0.6361* O   8 s( 16.84%)p 4.94( 83.16%)
                                            0.0000 -0.4103 -0.8683  0.2294 -0.1585
                ( 59.53%)  -0.7716* H  24 s(100.00%)
                                           -1.0000
    67. (0.01007) BD*( 1) C   9 - C  10  
                ( 50.81%)   0.7128* C   9 s( 25.06%)p 2.99( 74.94%)
                                            0.0000  0.5006  0.3973  0.7557 -0.1431
                ( 49.19%)  -0.7013* C  10 s( 25.76%)p 2.88( 74.24%)
                                            0.0001  0.5076 -0.4274 -0.7384  0.1205
    68. (0.01049) BD*( 1) C   9 - C  11  
                ( 51.14%)   0.7151* C   9 s( 24.86%)p 3.02( 75.14%)
                                            0.0000  0.4986  0.4115 -0.6285 -0.4326
                ( 48.86%)  -0.6990* C  11 s( 25.81%)p 2.87( 74.19%)
                                            0.0001  0.5080 -0.4370  0.6190  0.4095
    69. (0.01223) BD*( 1) C   9 - H  25  
                ( 49.07%)   0.7005* C   9 s( 24.70%)p 3.05( 75.30%)
                                            0.0000 -0.4970 -0.0184  0.1781 -0.8491
                ( 50.93%)  -0.7136* H  25 s(100.00%)
                                           -1.0000
    70. (0.00576) BD*( 1) C  10 - H  26  
                ( 48.17%)   0.6941* C  10 s( 24.87%)p 3.02( 75.13%)
                                            0.0000 -0.4987  0.0786 -0.2536  0.8251
                ( 51.83%)  -0.7199* H  26 s(100.00%)
                                           -1.0000
    71. (0.00577) BD*( 1) C  10 - H  27  
                ( 48.04%)   0.6931* C  10 s( 24.72%)p 3.05( 75.28%)
                                            0.0000 -0.4971  0.3241 -0.6143 -0.5201
                ( 51.96%)  -0.7208* H  27 s(100.00%)
                                           -1.0000
    72. (0.00524) BD*( 1) C  10 - H  28  
                ( 48.15%)   0.6939* C  10 s( 24.65%)p 3.06( 75.35%)
                                            0.0000 -0.4965 -0.8403  0.1149 -0.1847
[...]
 Sum      213.9778      -24.6768     238.6546       -27.5522     241.5299

 Contributions to Isotropic shielding for atom    8 (   367.3896 ppm):
                         Standard Origin              Atomic Origin
 NLMO      Total    Paramagnetic  Diamagnetic   Paramagnetic  Diamagnetic
    8       1.3367        0.9664       0.3702         0.6398       0.6969
   10      26.2217       10.5607      15.6609        15.6142      10.6075
   11      -0.2623       -0.6890       0.4267        -1.4803       1.2180
   21      -0.1701       -0.7259       0.5558        -1.0797       0.9096
   22      24.3009       12.7013      11.5996         9.8404      14.4605
   39     271.1745       -0.0054     271.1799        -0.0034     271.1780
   43      34.7681       -0.3160      35.0841        -2.6956      37.4637
   44       8.5831      -29.7813      38.3644       -31.3346      39.9177
 Sum      365.9524       -7.2892     373.2416       -10.4994     376.4518

 Contributions to Isotropic shielding for atom    9 (   214.1757 ppm):
                         Standard Origin              Atomic Origin
 NLMO      Total    Paramagnetic  Diamagnetic   Paramagnetic  Diamagnetic
   10      -0.0439       -0.1682       0.1243        -1.0887       1.0448
   16       5.6039      -10.0936      15.6975        -2.2762       7.8801
   23      -1.2774       -4.2112       2.9339        -8.8761       7.5988
   24      -1.5213       -5.1149       3.5936        -8.9360       7.4147
   25       6.2153       -3.5851       9.8004        -4.6685      10.8838
   26       0.9791       -0.4471       1.4262        -0.0857       1.0648
   27       0.7221       -0.5597       1.2818        -0.2674       0.9894
   29       0.9225       -0.4485       1.3710        -0.1492       1.0717
   30       0.7254       -0.5424       1.2678        -0.2622       0.9876
   40     199.9225       -0.0006     199.9231         0.0013     199.9212
 Sum      212.2482      -25.1714     237.4195       -26.6087     238.8569

 Contributions to Isotropic shielding for atom   10 (   221.2327 ppm):
                         Standard Origin              Atomic Origin
 NLMO      Total    Paramagnetic  Diamagnetic   Paramagnetic  Diamagnetic
   23       4.7445      -11.1973      15.9418        -3.1652       7.9098
   24      -0.5369        0.2491      -0.7860        -1.2564       0.7195
   25       0.3018       -0.0597       0.3615        -0.7371       1.0388
   26       5.8911       -3.9136       9.8047        -5.2521      11.1432
   27       6.1206       -4.3571      10.4777        -5.0330      11.1536
   28       4.4865        2.5672       1.9193        -6.6322      11.1187
   31      -0.2418       -0.8203       0.5786        -1.2033       0.9616
   41     200.0742       -0.0040     200.0781         0.0024     200.0718
 Sum      220.8400      -17.5358     238.3758       -23.2769     244.1169

 Contributions to Isotropic shielding for atom   11 (   221.9545 ppm):
                         Standard Origin              Atomic Origin
 NLMO      Total    Paramagnetic  Diamagnetic   Paramagnetic  Diamagnetic
   23      -0.4749        0.2490      -0.7239        -1.2134       0.7385
   24       4.5228      -10.9212      15.4440        -3.5384       8.0612
   25       0.3111       -0.1107       0.4218        -0.7130       1.0241
   28      -0.2602       -0.9579       0.6977        -1.2238       0.9637
   29       6.1392       -3.7652       9.9044        -5.0367      11.1759
   30       6.5126       -4.6268      11.1394        -4.4896      11.0022
   31       4.5890        2.5961       1.9929        -6.5566      11.1456
   42     200.0752       -0.0034     200.0785         0.0021     200.0731
 Sum      221.4148      -17.5401     238.9549       -22.7694     244.1842

 Contributions to Isotropic shielding for atom   12 (    32.3913 ppm):
                         Standard Origin              Atomic Origin
 NLMO      Total    Paramagnetic  Diamagnetic   Paramagnetic  Diamagnetic
    1       1.4462       -0.6115       2.0577         0.4318       1.0143
    2      26.3623        0.1386      26.2237         0.4356      25.9267
    3       1.9061        1.6275       0.2786         0.0711       1.8350
    4       1.9050        2.2792      -0.3742         0.0659       1.8391
    5      -0.1543        0.7587      -0.9130        -1.0421       0.8878
 Sum       31.4653        4.1925      27.2728        -0.0378      31.5030

 Contributions to Isotropic shielding for atom   13 (    32.7039 ppm):
                         Standard Origin              Atomic Origin
 NLMO      Total    Paramagnetic  Diamagnetic   Paramagnetic  Diamagnetic
    1       1.6609       -1.3102       2.9711         0.7620       0.8989
    2       1.9442        1.8617       0.0825         0.1195       1.8247
    3      26.4033        0.2824      26.1209         0.4382      25.9650
    4       1.9560        1.7491       0.2069         0.1311       1.8249
 Sum       31.9643        2.5830      29.3814         1.4508      30.5135

 Contributions to Isotropic shielding for atom   14 (    32.3709 ppm):
                         Standard Origin              Atomic Origin
 NLMO      Total    Paramagnetic  Diamagnetic   Paramagnetic  Diamagnetic
    1       1.4695       -0.7082       2.1778         0.4558       1.0137
    2       1.9011        2.3092      -0.4080         0.0609       1.8402
    3       1.9127        1.5452       0.3675         0.0776       1.8351
    4      26.3499        0.1585      26.1914         0.4313      25.9186
    6      -0.1348        0.7111      -0.8460        -1.0306       0.8957
 Sum       31.4984        4.0158      27.4826        -0.0049      31.5033

 Contributions to Isotropic shielding for atom   15 (    32.2359 ppm):
                         Standard Origin              Atomic Origin
 NLMO      Total    Paramagnetic  Diamagnetic   Paramagnetic  Diamagnetic
    1       0.7537        2.1997      -1.4460        -0.1908       0.9445
    2       0.2616       -0.9432       1.2048        -0.6996       0.9613
    4       0.2639       -0.9559       1.2198        -0.6974       0.9613
    5       1.4942        0.2914       1.2028         0.6419       0.8523
    6       1.5120        0.1287       1.3833         0.6677       0.8443
    7      26.2028        0.0813      26.1215         0.3900      25.8128
   10       0.0960       -0.3210       0.4170        -1.2976       1.3936
   43      -0.6257        0.0585      -0.6842         0.4991      -1.1248
 Sum       29.9585        0.5395      29.4190        -0.6867      30.6452

 Contributions to Isotropic shielding for atom   16 (    31.8965 ppm):
                         Standard Origin              Atomic Origin
 NLMO      Total    Paramagnetic  Diamagnetic   Paramagnetic  Diamagnetic
    9       0.7362        0.7645      -0.0283        -0.4981       1.2343
   10       0.6034        1.0846      -0.4813        -0.9277       1.5311
   11      26.8093        0.3101      26.4992         0.7844      26.0249
   20       0.2130       -0.3995       0.6125        -0.8068       1.0199
   24       0.0521       -0.7724       0.8245        -0.9707       1.0228
   30      -0.3448       -1.5383       1.1935        -1.0299       0.6851
 Sum       28.0693       -0.5509      28.6202        -3.4488      31.5181

 Contributions to Isotropic shielding for atom   17 (    32.3597 ppm):
                         Standard Origin              Atomic Origin
 NLMO      Total    Paramagnetic  Diamagnetic   Paramagnetic  Diamagnetic
   12       1.2853        0.5141       0.7712         0.3601       0.9252
   13       0.9992        1.3035      -0.3043        -0.1067       1.1059
   14      26.4694        0.0123      26.4571         0.4424      26.0270
   15       2.0888        1.2459       0.8429         0.3179       1.7709
   18       0.2001       -0.3965       0.5966        -0.8233       1.0234
   23       0.0282       -0.7439       0.7721        -1.0237       1.0519
   27      -0.3883       -1.7291       1.3409        -1.0300       0.6417
 Sum       30.6828        0.2063      30.4765        -1.8632      32.5460

 Contributions to Isotropic shielding for atom   18 (    32.4280 ppm):
                         Standard Origin              Atomic Origin
 NLMO      Total    Paramagnetic  Diamagnetic   Paramagnetic  Diamagnetic
   10       0.0772       -0.4818       0.5590        -1.1636       1.2409
   12       1.3525        0.1205       1.2320         0.4449       0.9076
   13       1.1572        0.9191       0.2381         0.2231       0.9341
   14       2.0396        1.4607       0.5789         0.3213       1.7183
   15      26.3204        0.2048      26.1156         0.4259      25.8945
 Sum       30.9469        2.2233      28.7236         0.2515      30.6954

 Contributions to Isotropic shielding for atom   19 (    33.0200 ppm):
                         Standard Origin              Atomic Origin
 NLMO      Total    Paramagnetic  Diamagnetic   Paramagnetic  Diamagnetic
    8       1.3924        0.7337       0.6587         0.4790       0.9134
   12       1.2470        0.7169       0.5301         0.2430       1.0039
   16       0.9893        1.3354      -0.3462         0.0216       0.9677
   17      26.5426        0.1126      26.4300         0.4317      26.1109
   26      -0.0778       -1.3729       1.2951        -0.9622       0.8844
   29      -0.0776       -1.2475       1.1699        -0.9568       0.8792
 Sum       30.0158        0.2783      29.7375        -0.7437      30.7595

 Contributions to Isotropic shielding for atom   20 (    32.8355 ppm):
                         Standard Origin              Atomic Origin
 NLMO      Total    Paramagnetic  Diamagnetic   Paramagnetic  Diamagnetic
    3      -0.0400       -1.3374       1.2974        -0.9377       0.8977
    5       1.2156        0.7120       0.5035         0.3781       0.8374
   13       1.3804        0.0342       1.3462         0.4519       0.9285
   18      26.5448        0.1692      26.3757         0.4334      26.1114
   19       1.9700        1.9124       0.0577         0.2234       1.7466
 Sum       31.0709        1.4904      29.5805         0.5491      30.5218

 Contributions to Isotropic shielding for atom   21 (    32.3238 ppm):
                         Standard Origin              Atomic Origin
 NLMO      Total    Paramagnetic  Diamagnetic   Paramagnetic  Diamagnetic
    2      -0.0809       -1.4579       1.3770        -0.9653       0.8844
    5       0.9941        1.2205      -0.2264         0.0704       0.9237
   13       1.2298        0.6459       0.5840         0.2301       0.9997
   15       0.1836        0.1416       0.0420        -0.8301       1.0137
   18       1.9867        1.6095       0.3772         0.2499       1.7368
   19      26.4803        0.0124      26.4679         0.4800      26.0003
 Sum       30.7936        2.1720      28.6216        -0.7650      31.5586

 Contributions to Isotropic shielding for atom   22 (    32.7672 ppm):
                         Standard Origin              Atomic Origin
 NLMO      Total    Paramagnetic  Diamagnetic   Paramagnetic  Diamagnetic
    3      -0.0395       -1.3818       1.3424        -0.9361       0.8966
    6       1.1671        0.8219       0.3452         0.3000       0.8671
    9       1.4825        0.1882       1.2944         0.6797       0.8028
   20      26.4135        0.1870      26.2264         0.4362      25.9772
   21       1.9821        1.7548       0.2272         0.2282       1.7539
 Sum       31.0057        1.5701      29.4356         0.7081      30.2976

 Contributions to Isotropic shielding for atom   23 (    31.9053 ppm):
                         Standard Origin              Atomic Origin
 NLMO      Total    Paramagnetic  Diamagnetic   Paramagnetic  Diamagnetic
    4      -0.0829       -1.5078       1.4249        -0.9708       0.8880
    6       0.9637        1.2852      -0.3215        -0.0576       1.0213
    9       1.2331        0.6294       0.6037         0.3222       0.9109
   10       0.0067        0.0817      -0.0750        -1.6055       1.6122
   20       1.9927        1.4799       0.5128         0.2614       1.7314
   21      26.2316        0.0594      26.1722         0.4696      25.7620
 Sum       30.3449        2.0278      28.3171        -1.5808      31.9257

 Contributions to Isotropic shielding for atom   24 (    34.7621 ppm):
                         Standard Origin              Atomic Origin
 NLMO      Total    Paramagnetic  Diamagnetic   Paramagnetic  Diamagnetic
   10       1.6330        1.8783      -0.2453         0.8945       0.7385
   11       0.1504        0.1332       0.0173        -0.8662       1.0166
   16      -0.0369       -0.1968       0.1600        -1.0779       1.0410
   22      22.9353       -0.5341      23.4694        -0.2347      23.1701
   30      -0.3023       -1.1736       0.8714        -0.7790       0.4768
   43       3.8949        1.0093       2.8856         1.9452       1.9498
   44       5.3758        2.3239       3.0519         2.1779       3.1978
 Sum       33.6503        3.4401      30.2103         2.0597      31.5906

 Contributions to Isotropic shielding for atom   25 (    32.8596 ppm):
                         Standard Origin              Atomic Origin
 NLMO      Total    Paramagnetic  Diamagnetic   Paramagnetic  Diamagnetic
   10      -0.0365       -0.1216       0.0850        -1.1706       1.1341
   16       1.7237       -0.4983       2.2220         0.7661       0.9576
   23       0.9394        1.6828      -0.7434        -0.0856       1.0250
   24       0.9606        1.5393      -0.5788         0.0053       0.9552
   25      26.5157        0.0727      26.4430         0.3943      26.1214
   27       0.2039       -0.8654       1.0693        -0.7697       0.9736
   30       0.2154       -0.7897       1.0050        -0.7459       0.9612
 Sum       30.5222        1.0200      29.5022        -1.6060      32.1281

 Contributions to Isotropic shielding for atom   26 (    32.6646 ppm):
                         Standard Origin              Atomic Origin
 NLMO      Total    Paramagnetic  Diamagnetic   Paramagnetic  Diamagnetic
   23       1.5522       -0.8618       2.4140         0.6134       0.9388
   26      26.3271        0.2860      26.0411         0.4217      25.9054
   27       2.0617        0.8076       1.2540         0.2622       1.7995
   28       1.8863        2.2711      -0.3848         0.0721       1.8142
 Sum       31.8272        2.5029      29.3243         1.3694      30.4578

 Contributions to Isotropic shielding for atom   27 (    32.2973 ppm):
                         Standard Origin              Atomic Origin
 NLMO      Total    Paramagnetic  Diamagnetic   Paramagnetic  Diamagnetic
   12      -0.0701        0.2408      -0.3109        -1.1039       1.0338
   23       1.5236       -1.0848       2.6084         0.5244       0.9991
   26       2.0266        0.7653       1.2613         0.1917       1.8349
   27      26.2753        0.2342      26.0411         0.3978      25.8775
   28       1.8161        2.0442      -0.2281        -0.0826       1.8987
 Sum       31.5715        2.1998      29.3717        -0.0725      31.6440

 Contributions to Isotropic shielding for atom   28 (    32.5587 ppm):
                         Standard Origin              Atomic Origin
 NLMO      Total    Paramagnetic  Diamagnetic   Paramagnetic  Diamagnetic
   23       1.2444        0.3396       0.9048         0.2661       0.9783
   24      -0.2468        0.8193      -1.0661        -1.3177       1.0709
   26       1.9288        1.8936       0.0352         0.0769       1.8518
   27       1.9855        1.8378       0.1478         0.0980       1.8875
   28      26.3587       -0.0148      26.3734         0.4630      25.8956
   31      -0.1406       -0.9815       0.8410        -1.0111       0.8706
 Sum       31.1300        3.8939      27.2361        -1.4247      32.5547

 Contributions to Isotropic shielding for atom   29 (    32.6969 ppm):
                         Standard Origin              Atomic Origin
 NLMO      Total    Paramagnetic  Diamagnetic   Paramagnetic  Diamagnetic
   24       1.5470       -0.7273       2.2743         0.5804       0.9665
   29      26.2709        0.2770      25.9940         0.4127      25.8582
   30       2.0719        0.6679       1.4040         0.2879       1.7839
   31       1.8886        2.2586      -0.3700         0.0733       1.8153
 Sum       31.7784        2.4762      29.3022         1.3544      30.4240

 Contributions to Isotropic shielding for atom   30 (    32.8066 ppm):
                         Standard Origin              Atomic Origin
 NLMO      Total    Paramagnetic  Diamagnetic   Paramagnetic  Diamagnetic
    8      -0.1338        0.1630      -0.2968        -1.1035       0.9697
   10      -0.1339        0.2406      -0.3745        -1.1798       1.0459
   24       1.5498       -1.0673       2.6170         0.5356       1.0142
   29       2.0693        0.6824       1.3869         0.2294       1.8398
   30      26.4706        0.2570      26.2137         0.3760      26.0947
   31       1.8588        1.9589      -0.1001        -0.0385       1.8973
 Sum       31.6808        2.2346      29.4462        -1.1808      32.8616

 Contributions to Isotropic shielding for atom   31 (    32.6144 ppm):
                         Standard Origin              Atomic Origin
 NLMO      Total    Paramagnetic  Diamagnetic   Paramagnetic  Diamagnetic
   23      -0.2189        0.7677      -0.9866        -1.2928       1.0740
   24       1.2267        0.4833       0.7434         0.2249       1.0017
   28      -0.1400       -1.1258       0.9858        -1.0048       0.8648
   29       1.9532        1.8999       0.0533         0.0955       1.8577
   30       1.9820        1.6930       0.2890         0.1147       1.8672
   31      26.3187       -0.0159      26.3346         0.4667      25.8520
 Sum       31.1217        3.7022      27.4195        -1.3957      32.5174
 
 1\1\GINC-COMPUTE-10-4\SP\RHF\STO-3G\C10H20O1\YTSAI.IQUIR\03-Aug-2021\0
 \\# rhf/STO-3G nmr pop=nbo\\comment\\0,1\C,0,-0.887729589,-2.308515605
 ,-2.828177417\C,0,-0.718571218,-1.663913204,-1.4532364\C,0,0.975644855
 ,-0.754398377,0.214130199\C,0,-1.281963248,0.364143784,-0.037196285\C,
 0,0.208600077,0.587936826,0.301200425\C,0,-1.476817924,-0.336977845,-1
 .381273337\C,0,0.766217919,-1.446994588,-1.135850941\O,0,0.552542795,-
 1.651035477,1.239655512\C,0,0.377309859,1.307772996,1.676641392\C,0,-0
 .319772904,2.675418373,1.70387281\C,0,1.852801508,1.512886814,2.044474
 999\H,0,-1.946093717,-2.487334123,-3.045260629\H,0,-0.482643899,-1.670
 415211,-3.620920863\H,0,-0.369430497,-3.272215008,-2.871226136\H,0,-1.
 143956502,-2.349216652,-0.70843333\H,0,2.051936758,-0.594025883,0.3375
 82913\H,0,-1.812540759,1.320533191,-0.08733568\H,0,-1.76100563,-0.2250
 27138,0.754734943\H,0,0.624487609,1.249127189,-0.472867187\H,0,-1.1398
 38043,0.330305183,-2.185139006\H,0,-2.54747826,-0.510226125,-1.5439486
 17\H,0,1.232207418,-0.844800431,-1.926172377\H,0,1.27218918,-2.4206464
 72,-1.12675986\H,0,0.857273649,-1.295876399,2.091018938\H,0,-0.0816834
 63,0.694185673,2.462223137\H,0,0.015171684,3.30754434,0.874685814\H,0,
 -1.407159621,2.573909788,1.644119138\H,0,-0.105981645,3.204721392,2.63
 9128053\H,0,2.38667529,2.049062017,1.252667955\H,0,2.361290126,0.56040
 4972,2.219050234\H,0,1.948318191,2.093666,2.968611603\\Version=EM64L-G
 09RevC.01\State=1-A\HF=-459.6224569\RMSD=6.425e-09\Dipole=0.2292726,0.
 4714927,0.0867351\Quadrupole=0.6627079,-2.1603868,1.4976789,0.076312,0
 .4536698,0.4454262\PG=C01 [X(C10H20O1)]\\@


 THE MOST SERIOUS THREAT TO THE SURVIVAL OF MANKIND IS NOT NOW
 IGNORANCE IN THE TRADITIONAL SENSE,
 BUT A MORALLY NEUTRAL, AN INSENSITIVE OR INHIBITED HUMAN INTELLIGENCE.

                     -- MARGO JEFFERSON IN NEWSWEEK, SEPTEMBER 2, 1974
 Job cpu time:  0 days  0 hours  0 minutes 30.1 seconds.
 File lengths (MBytes):  RWF=      5 Int=      0 D2E=      0 Chk=      1 Scr=      1
 Normal termination of Gaussian 09 at Tue Aug  3 16:37:11 2021.
