 Entering Gaussian System, Link 0=g09
 Input=/home/ytsai.iquir/menthol/04_menthol_M0067_MMFF_NMR_rhf_STO-3G_nbo.gjc
 Output=/home/ytsai.iquir/menthol/04_menthol_M0067_MMFF_NMR_rhf_STO-3G_nbo.log
 Initial command:
 /share/apps/Gaussian09/EM64T.SSE4.2-enabled/g09/l1.exe /tmp/Gau-15474.inp -scrdir=/tmp/
 Entering Link 1 = /share/apps/Gaussian09/EM64T.SSE4.2-enabled/g09/l1.exe PID=     15476.
  
 Copyright (c) 1988,1990,1992,1993,1995,1998,2003,2009,2011,
            Gaussian, Inc.  All Rights Reserved.
  
 This is part of the Gaussian(R) 09 program.  It is based on
 the Gaussian(R) 03 system (copyright 2003, Gaussian, Inc.),
 the Gaussian(R) 98 system (copyright 1998, Gaussian, Inc.),
 the Gaussian(R) 94 system (copyright 1995, Gaussian, Inc.),
 the Gaussian 92(TM) system (copyright 1992, Gaussian, Inc.),
 the Gaussian 90(TM) system (copyright 1990, Gaussian, Inc.),
 the Gaussian 88(TM) system (copyright 1988, Gaussian, Inc.),
 the Gaussian 86(TM) system (copyright 1986, Carnegie Mellon
 University), and the Gaussian 82(TM) system (copyright 1983,
 Carnegie Mellon University). Gaussian is a federally registered
 trademark of Gaussian, Inc.
  
 This software contains proprietary and confidential information,
 including trade secrets, belonging to Gaussian, Inc.
  
 This software is provided under written license and may be
 used, copied, transmitted, or stored only in accord with that
 written license.
  
 The following legend is applicable only to US Government
 contracts under FAR:
  
                    RESTRICTED RIGHTS LEGEND
  
 Use, reproduction and disclosure by the US Government is
 subject to restrictions as set forth in subparagraphs (a)
 and (c) of the Commercial Computer Software - Restricted
 Rights clause in FAR 52.227-19.
  
 Gaussian, Inc.
 340 Quinnipiac St., Bldg. 40, Wallingford CT 06492
  
  
 ---------------------------------------------------------------
 Warning -- This program may not be used in any manner that
 competes with the business of Gaussian, Inc. or will provide
 assistance to any competitor of Gaussian, Inc.  The licensee
 of this program is prohibited from giving any competitor of
 Gaussian, Inc. access to this program.  By using this program,
 the user acknowledges that Gaussian, Inc. is engaged in the
 business of creating and licensing software in the field of
 computational chemistry and represents and warrants to the
 licensee that it is not a competitor of Gaussian, Inc. and that
 it will not use this program in any manner prohibited above.
 ---------------------------------------------------------------
  

 Cite this work as:
 Gaussian 09, Revision C.01,
 M. J. Frisch, G. W. Trucks, H. B. Schlegel, G. E. Scuseria, 
 M. A. Robb, J. R. Cheeseman, G. Scalmani, V. Barone, B. Mennucci, 
 G. A. Petersson, H. Nakatsuji, M. Caricato, X. Li, H. P. Hratchian, 
 A. F. Izmaylov, J. Bloino, G. Zheng, J. L. Sonnenberg, M. Hada, 
 M. Ehara, K. Toyota, R. Fukuda, J. Hasegawa, M. Ishida, T. Nakajima, 
 Y. Honda, O. Kitao, H. Nakai, T. Vreven, J. A. Montgomery, Jr., 
 J. E. Peralta, F. Ogliaro, M. Bearpark, J. J. Heyd, E. Brothers, 
 K. N. Kudin, V. N. Staroverov, T. Keith, R. Kobayashi, J. Normand, 
 K. Raghavachari, A. Rendell, J. C. Burant, S. S. Iyengar, J. Tomasi, 
 M. Cossi, N. Rega, J. M. Millam, M. Klene, J. E. Knox, J. B. Cross, 
 V. Bakken, C. Adamo, J. Jaramillo, R. Gomperts, R. E. Stratmann, 
 O. Yazyev, A. J. Austin, R. Cammi, C. Pomelli, J. W. Ochterski, 
 R. L. Martin, K. Morokuma, V. G. Zakrzewski, G. A. Voth, 
 P. Salvador, J. J. Dannenberg, S. Dapprich, A. D. Daniels, 
 O. Farkas, J. B. Foresman, J. V. Ortiz, J. Cioslowski, 
 and D. J. Fox, Gaussian, Inc., Wallingford CT, 2010.
 
 ******************************************
 Gaussian 09:  EM64L-G09RevC.01 23-Sep-2011
                24-May-2020 
 ******************************************
 %nprocshared=4
 Will use up to    4 processors via shared memory.
 ------------------------
 # rhf/STO-3G nmr pop=nbo
 ------------------------
 1/38=1/1;
 2/12=2,17=6,18=5,40=1/2;
 3/6=3,11=1,16=1,25=1,30=1,116=1/1,2,8,3;
 4//1;
 5/5=2,38=5/2;
 8/6=1,10=90,11=11/1;
 10/13=100,45=16/2;
 6/7=2,8=2,9=2,10=2,28=1,64=1/1,7;
 99/9=1/99;
 -------
 comment
 -------
 Charge =  0 Multiplicity = 1
 Symbolic Z-Matrix:
 6                     1.1103   -0.7128   -2.70478 
 6                     0.02571  -1.46569  -1.92918 
 6                     0.84683  -0.91537   0.44169 
 6                    -1.41178  -0.06772  -0.29277 
 6                    -0.06967   0.3368    0.33977 
 6                    -1.23404  -0.60899  -1.71888 
 6                     0.54961  -2.00409  -0.59999 
 8                     0.75921  -1.53157   1.72754 
 6                    -0.22245   1.11255   1.68315 
 6                    -1.12914   2.34395   1.55474 
 6                     1.14084   1.57556   2.21812 
 1                     0.73717  -0.40841  -3.68866 
 1                     1.44886   0.18679  -2.18401 
 1                     1.98298  -1.35453  -2.86704 
 1                    -0.2557   -2.32437  -2.55343 
 1                     1.887    -0.58853   0.32616 
 1                    -2.10455   0.77707  -0.35094 
 1                    -1.89911  -0.82645   0.33271 
 1                     0.40343   1.02997  -0.36994 
 1                    -1.2418    0.22906  -2.42714 
 1                    -2.12067  -1.20887  -1.96147 
 1                     1.45296  -2.60752  -0.75709 
 1                    -0.19006  -2.70933  -0.19557 
 1                    -0.16626  -1.79396   1.86992 
 1                    -0.67782   0.45327   2.43263 
 1                    -0.80614   2.99113   0.73247 
 1                    -2.17088   2.05816   1.38274 
 1                    -1.11589   2.93699   2.47601 
 1                     1.64509   2.22861   1.49751 
 1                     1.80437   0.73352   2.43306 
 1                     1.02159   2.13478   3.15268 
 
                          Input orientation:                          
 ---------------------------------------------------------------------
 Center     Atomic      Atomic             Coordinates (Angstroms)
 Number     Number       Type             X           Y           Z
 ---------------------------------------------------------------------
      1          6           0        1.110297   -0.712799   -2.704775
      2          6           0        0.025705   -1.465690   -1.929179
      3          6           0        0.846826   -0.915372    0.441688
      4          6           0       -1.411775   -0.067723   -0.292772
      5          6           0       -0.069666    0.336802    0.339767
      6          6           0       -1.234041   -0.608993   -1.718879
      7          6           0        0.549610   -2.004093   -0.599989
      8          8           0        0.759211   -1.531568    1.727542
      9          6           0       -0.222448    1.112551    1.683150
     10          6           0       -1.129141    2.343946    1.554736
     11          6           0        1.140839    1.575560    2.218115
     12          1           0        0.737174   -0.408412   -3.688658
     13          1           0        1.448863    0.186794   -2.184008
     14          1           0        1.982976   -1.354527   -2.867041
     15          1           0       -0.255699   -2.324371   -2.553428
     16          1           0        1.886998   -0.588533    0.326163
     17          1           0       -2.104548    0.777073   -0.350942
     18          1           0       -1.899110   -0.826451    0.332706
     19          1           0        0.403431    1.029967   -0.369943
     20          1           0       -1.241805    0.229060   -2.427140
     21          1           0       -2.120672   -1.208875   -1.961466
     22          1           0        1.452959   -2.607520   -0.757092
     23          1           0       -0.190057   -2.709328   -0.195574
     24          1           0       -0.166256   -1.793956    1.869924
     25          1           0       -0.677816    0.453271    2.432631
     26          1           0       -0.806144    2.991127    0.732471
     27          1           0       -2.170881    2.058157    1.382745
     28          1           0       -1.115886    2.936994    2.476008
     29          1           0        1.645093    2.228614    1.497507
     30          1           0        1.804373    0.733516    2.433056
     31          1           0        1.021592    2.134780    3.152677
 ---------------------------------------------------------------------
                    Distance matrix (angstroms):
                    1          2          3          4          5
     1  C    0.000000
     2  C    1.531252   0.000000
     3  C    3.163967   2.568677   0.000000
     4  C    3.548906   2.588144   2.521749   0.000000
     5  C    3.429754   2.899343   1.555084   1.537857   0.000000
     6  C    2.545327   1.537893   3.015282   1.535690   2.547218
     7  C    2.532180   1.526794   1.535820   2.773255   2.597390
     8  O    4.520960   3.730145   1.428564   3.307218   2.470580
     9  C    4.935787   4.444977   2.607114   2.590716   1.558783
    10  C    5.701072   5.290053   3.970702   3.051117   2.574347
    11  C    5.428846   5.262392   3.073578   3.939641   2.555002
    12  H    1.095399   2.172508   4.162787   4.033125   4.175469
    13  H    1.093203   2.195682   2.910585   3.438721   2.949216
    14  H    1.095314   2.173212   3.525817   4.450512   4.166239
    15  H    2.118022   1.098275   3.488776   3.396990   3.935356
    16  H    3.131340   3.052930   1.096416   3.396503   2.164479
    17  H    4.253878   3.472578   3.493314   1.094074   2.193550
    18  H    4.277352   3.038036   2.749535   1.097445   2.167965
    19  H    2.998056   2.966850   2.153994   2.122700   1.099084
    20  H    2.548836   2.174103   3.728576   2.161596   3.006874
    21  H    3.352277   2.161928   3.829796   2.142265   3.448393
    22  H    2.738769   2.171317   2.160518   3.856536   3.491493
    23  H    3.460222   2.144429   2.167834   2.912065   3.095157
    24  H    4.870971   3.818087   1.959107   3.034543   2.625041
    25  H    5.563273   4.816922   2.856846   2.870183   2.182542
    26  H    5.404302   5.257335   4.251776   3.282450   2.782455
    27  H    5.928924   5.311433   4.339817   2.811220   2.909633
    28  H    6.716949   6.331866   4.778224   4.096586   3.524074
    29  H    5.157237   5.292681   3.411251   4.221694   2.803517
    30  H    5.382460   5.198967   2.757040   4.291355   2.837474
    31  H    6.513549   6.307173   4.084535   4.758509   3.512269
                    6          7          8          9         10
     6  C    0.000000
     7  C    2.525792   0.000000
     8  O    4.086810   2.384243   0.000000
     9  C    3.944722   3.939830   2.820813   0.000000
    10  C    4.409922   5.134831   4.314550   1.534574   0.000000
    11  C    5.090408   4.594038   3.168682   1.535942   2.486623
    12  H    2.793913   3.481560   5.531473   5.664849   6.209009
    13  H    2.836828   2.849169   4.327657   4.313376   5.027686
    14  H    3.496182   2.759710   4.758061   5.626242   6.551037
    15  H    2.143862   2.137060   4.470491   5.455467   6.279578
    16  H    3.731421   2.156427   2.031030   3.030654   4.382457
    17  H    2.133123   3.852462   4.225049   2.791483   2.652946
    18  H    2.167626   2.872801   3.083736   2.897347   3.483910
    19  H    2.680883   3.046279   3.329788   2.147960   2.789213
    20  H    1.097282   3.396266   4.936118   4.325983   4.510075
    21  H    1.097643   3.101031   4.691123   4.719692   5.096013
    22  H    3.484123   1.097655   2.795062   4.754019   6.043907
    23  H    2.796742   1.099097   2.446754   4.258803   5.429645
    24  H    3.927315   2.580134   0.972424   2.913043   4.260132
    25  H    4.321206   4.091698   2.549859   1.097147   2.132849
    26  H    4.376423   5.344693   4.888279   2.184843   1.095121
    27  H    4.196597   5.275810   4.646552   2.186505   1.093836
    28  H    5.494094   6.053922   4.903492   2.180700   1.095729
    29  H    5.165904   4.849266   3.869970   2.183522   2.777220
    30  H    5.317222   4.274142   2.592434   2.194090   3.459832
    31  H    6.028949   5.606740   3.942329   2.179931   2.687530
                   11         12         13         14         15
    11  C    0.000000
    12  H    6.244122   0.000000
    13  H    4.626256   1.767694   0.000000
    14  H    5.929032   1.766978   1.768468   0.000000
    15  H    6.318814   2.438328   3.057442   2.459800   0.000000
    16  H    2.969771   4.180111   2.663467   3.285195   3.987020
    17  H    4.215468   4.541047   4.041694   5.251888   4.229437
    18  H    4.308795   4.826605   4.309227   5.058441   3.643395
    19  H    2.745812   3.632381   2.257145   3.796877   4.056309
    20  H    5.391516   2.431903   2.701961   3.619457   2.740139
    21  H    5.988274   3.433834   3.839140   4.204902   2.252304
    22  H    5.142708   3.733967   3.137563   2.510537   2.495297
    23  H    5.094845   4.284345   3.876526   3.700580   2.389974
    24  H    3.630891   5.799461   4.792322   5.220262   4.455938
    25  H    2.147803   6.341520   5.089905   6.199554   5.723134
    26  H    2.828729   5.786629   4.631975   6.294473   6.273328
    27  H    3.449381   6.345066   5.415373   6.852854   6.194185
    28  H    2.648173   7.254563   5.988096   7.521188   7.329196
    29  H    1.095458   5.888508   4.214391   5.657061   6.383788
    30  H    1.093396   6.318093   4.662893   5.699373   6.201580
    31  H    1.095605   7.304285   5.697141   7.023996   7.353580
                   16         17         18         19         20
    16  H    0.000000
    17  H    4.272680   0.000000
    18  H    3.793582   1.755241   0.000000
    19  H    2.303276   2.520769   3.040016   0.000000
    20  H    4.247181   2.314139   3.027028   2.753237   0.000000
    21  H    4.656124   2.556958   2.336356   3.730476   1.748404
    22  H    2.331982   4.927097   3.949206   3.805616   4.254057
    23  H    3.013990   3.980504   2.597146   3.790114   3.836690
    24  H    2.837622   3.911446   2.510356   3.649122   4.869718
    25  H    3.478626   3.144629   2.745711   3.058773   4.897523
    26  H    4.498007   2.785978   3.991026   2.554317   4.219237
    27  H    4.958600   2.156675   3.081786   3.279660   4.327123
    28  H    5.105732   3.692473   4.401216   3.747601   5.602644
    29  H    3.060537   4.425330   4.821986   2.542803   5.266426
    30  H    2.488702   4.799188   4.534396   3.147590   5.758053
    31  H    4.019272   4.887890   5.025100   3.743205   6.315781
                   21         22         23         24         25
    21  H    0.000000
    22  H    4.022134   0.000000
    23  H    3.016125   1.739301   0.000000
    24  H    4.340692   3.191388   2.259370   0.000000
    25  H    4.914534   4.907441   4.140942   2.372417   0.000000
    26  H    5.159970   6.218295   5.808271   4.959866   3.057405
    27  H    4.675442   6.283284   5.398487   4.369741   2.430465
    28  H    6.155404   6.913288   6.314702   4.863232   2.522433
    29  H    6.161315   5.339319   5.533314   4.427273   3.069561
    30  H    6.204085   4.632824   4.768712   3.254014   2.497959
    31  H    6.870830   6.161313   6.012009   4.300163   2.496784
                   26         27         28         29         30
    26  H    0.000000
    27  H    1.776456   0.000000
    28  H    1.771663   1.755162   0.000000
    29  H    2.678669   3.821502   3.013681   0.000000
    30  H    3.847544   4.319776   3.658562   1.770859   0.000000
    31  H    3.151404   3.651084   2.381227   1.771198   1.759017
                   31
    31  H    0.000000
 Stoichiometry    C10H20O
 Framework group  C1[X(C10H20O)]
 Deg. of freedom    87
 Full point group                 C1      NOp   1
 Largest Abelian subgroup         C1      NOp   1
 Largest concise Abelian subgroup C1      NOp   1
                         Standard orientation:                         
 ---------------------------------------------------------------------
 Center     Atomic      Atomic             Coordinates (Angstroms)
 Number     Number       Type             X           Y           Z
 ---------------------------------------------------------------------
      1          6           0       -2.636150   -0.274452    1.484398
      2          6           0       -2.395930   -0.202135   -0.026164
      3          6           0       -0.215071    1.153799    0.032104
      4          6           0       -0.167399   -1.190991   -0.894668
      5          6           0        0.500648   -0.225205    0.098294
      6          6           0       -1.643887   -1.436609   -0.551160
      7          6           0       -1.679634    1.085790   -0.425250
      8          8           0        0.456610    2.056491   -0.848116
      9          6           0        2.048398   -0.136353   -0.064129
     10          6           0        2.729939   -1.509427    0.007191
     11          6           0        2.671572    0.763942    1.013015
     12          1           0       -3.223102   -1.164031    1.737450
     13          1           0       -1.704408   -0.316852    2.054618
     14          1           0       -3.199070    0.600522    1.826822
     15          1           0       -3.389855   -0.193871   -0.493341
     16          1           0       -0.175650    1.608104    1.029191
     17          1           0        0.328396   -2.166174   -0.908996
     18          1           0       -0.086629   -0.786595   -1.911686
     19          1           0        0.314205   -0.641418    1.098290
     20          1           0       -1.714616   -2.256990    0.174099
     21          1           0       -2.141916   -1.801138   -1.458853
     22          1           0       -2.217504    1.961793   -0.040331
     23          1           0       -1.729572    1.186070   -1.518622
     24          1           0        0.470178    1.654742   -1.733567
     25          1           0        2.285820    0.291129   -1.046281
     26          1           0        2.434778   -2.053009    0.910900
     27          1           0        2.484183   -2.124318   -0.863437
     28          1           0        3.820579   -1.404471    0.017733
     29          1           0        2.450726    0.386406    2.017367
     30          1           0        2.304985    1.792143    0.950313
     31          1           0        3.760677    0.805880    0.901476
 ---------------------------------------------------------------------
 Rotational constants (GHZ):      1.5934722      0.7658606      0.6495420
 Standard basis: STO-3G (5D, 7F)
 There are    75 symmetry adapted basis functions of A   symmetry.
 Integral buffers will be    131072 words long.
 Raffenetti 1 integral format.
 Two-electron integral symmetry is turned on.
    75 basis functions,   225 primitive gaussians,    75 cartesian basis functions
    44 alpha electrons       44 beta electrons
       nuclear repulsion energy       697.7043325440 Hartrees.
 NAtoms=   31 NActive=   31 NUniq=   31 SFac= 1.00D+00 NAtFMM=   60 NAOKFM=F Big=F
 One-electron integrals computed using PRISM.
 NBasis=    75 RedAO= T  NBF=    75
 NBsUse=    75 1.00D-06 NBFU=    75
 Harris functional with IExCor=  205 diagonalized for initial guess.
 ExpMin= 1.69D-01 ExpMax= 1.31D+02 ExpMxC= 1.31D+02 IAcc=1 IRadAn=         1 AccDes= 0.00D+00
 HarFok:  IExCor=  205 AccDes= 0.00D+00 IRadAn=         1 IDoV= 1
 ScaDFX=  1.000000  1.000000  1.000000  1.000000
 FoFCou: FMM=F IPFlag=           0 FMFlag=      100000 FMFlg1=           0
         NFxFlg=           0 DoJE=T BraDBF=F KetDBF=T FulRan=T
         Omega=  0.000000  0.000000  1.000000  0.000000  0.000000 ICntrl=     500 IOpCl=  0
         NMat0=    1 NMatS0=    1 NMatT0=    0 NMatD0=    1 NMtDS0=    0 NMtDT0=    0
         I1Cent=           4 NGrid=           0.
 Petite list used in FoFCou.
 Initial guess orbital symmetries:
       Occupied  (A) (A) (A) (A) (A) (A) (A) (A) (A) (A) (A) (A)
                 (A) (A) (A) (A) (A) (A) (A) (A) (A) (A) (A) (A)
                 (A) (A) (A) (A) (A) (A) (A) (A) (A) (A) (A) (A)
                 (A) (A) (A) (A) (A) (A) (A) (A)
       Virtual   (A) (A) (A) (A) (A) (A) (A) (A) (A) (A) (A) (A)
                 (A) (A) (A) (A) (A) (A) (A) (A) (A) (A) (A) (A)
                 (A) (A) (A) (A) (A) (A) (A)
 The electronic state of the initial guess is 1-A.
 Requested convergence on RMS density matrix=1.00D-08 within 128 cycles.
 Requested convergence on MAX density matrix=1.00D-06.
 Requested convergence on             energy=1.00D-06.
 No special actions if energy rises.
 Keep R1 ints in memory in canonical form, NReq=4898789.
 SCF Done:  E(RHF) =  -459.609196089     A.U. after   10 cycles
             Convg  =    0.9277D-08             -V/T =  2.0089
 Range of M.O.s used for correlation:     1    75
 NBasis=    75 NAE=    44 NBE=    44 NFC=     0 NFV=     0
 NROrb=     75 NOA=    44 NOB=    44 NVA=    31 NVB=    31
          Differentiating once with respect to magnetic field using GIAOs.
          Electric field/nuclear overlap derivatives assumed to be zero.
          Keep R3 ints in memory in canonical form, NReq=4863575.
 FoFCou: FMM=F IPFlag=           0 FMFlag=           0 FMFlg1=           0
         NFxFlg=           0 DoJE=F BraDBF=F KetDBF=T FulRan=T
         Omega=  0.000000  0.000000  1.000000  0.000000  0.000000 ICntrl=    6100 IOpCl=  0
         NMat0=    1 NMatS0=    1 NMatT0=    0 NMatD0=    1 NMtDS0=    0 NMtDT0=    0
         I1Cent=           7 NGrid=          31.
 Symmetry not used in FoFCou.
          There are     3 degrees of freedom in the 1st order CPHF.  IDoFFX=0.
      3 vectors produced by pass  0 Test12= 4.55D-14 3.33D-08 XBig12= 6.93D+00 5.05D-01.
 AX will form     3 AO Fock derivatives at one time.
      3 vectors produced by pass  1 Test12= 4.55D-14 3.33D-08 XBig12= 1.07D-02 1.38D-02.
      3 vectors produced by pass  2 Test12= 4.55D-14 3.33D-08 XBig12= 6.84D-05 2.25D-03.
      3 vectors produced by pass  3 Test12= 4.55D-14 3.33D-08 XBig12= 1.75D-06 3.68D-04.
      3 vectors produced by pass  4 Test12= 4.55D-14 3.33D-08 XBig12= 2.34D-08 3.93D-05.
      3 vectors produced by pass  5 Test12= 4.55D-14 3.33D-08 XBig12= 4.13D-10 4.33D-06.
      3 vectors produced by pass  6 Test12= 4.55D-14 3.33D-08 XBig12= 4.17D-12 2.79D-07.
 Inverted reduced A of dimension    21 with in-core refinement.
 Calculating GIAO nuclear magnetic shielding tensors.
 SCF GIAO Magnetic shielding tensor (ppm):
      1  C    Isotropic =   220.5669   Anisotropy =    27.1263
   XX=   211.0468   YX=    -1.4948   ZX=    -8.0693
   XY=    -1.4572   YY=   215.8393   ZY=    -0.6698
   XZ=   -12.5062   YZ=     0.0461   ZZ=   234.8145
   Eigenvalues:   206.9616   216.0879   238.6511
      2  C    Isotropic =   217.8069   Anisotropy =     4.6837
   XX=   216.3221   YX=    -0.9367   ZX=    -4.4290
   XY=    -0.8662   YY=   219.5142   ZY=    -0.7592
   XZ=    -3.1909   YZ=     0.2493   ZZ=   217.5846
   Eigenvalues:   212.9799   219.5115   220.9294
      3  C    Isotropic =   189.9392   Anisotropy =    38.4092
   XX=   191.9527   YX=     9.7509   ZX=   -11.2604
   XY=     8.7684   YY=   194.9261   ZY=   -17.4151
   XZ=   -12.1286   YZ=   -16.0837   ZZ=   182.9389
   Eigenvalues:   170.0472   184.2251   215.5453
      4  C    Isotropic =   219.9542   Anisotropy =    15.2058
   XX=   228.4670   YX=     1.6331   ZX=     1.6910
   XY=     4.0669   YY=   214.1555   ZY=     6.7819
   XZ=     3.2693   YZ=     4.4278   ZZ=   217.2402
   Eigenvalues:   209.8512   219.9201   230.0914
      5  C    Isotropic =   210.0886   Anisotropy =    20.1199
   XX=   223.4646   YX=    -0.8561   ZX=     0.9664
   XY=    -0.5634   YY=   207.4466   ZY=    -0.1602
   XZ=    -1.7209   YZ=     0.1993   ZZ=   199.3546
   Eigenvalues:   199.3487   207.4152   223.5019
      6  C    Isotropic =   216.8895   Anisotropy =    16.3644
   XX=   219.6516   YX=    -3.3073   ZX=    -8.0411
   XY=    -3.7135   YY=   221.5923   ZY=     2.5291
   XZ=    -7.8808   YZ=     4.7160   ZZ=   209.4245
   Eigenvalues:   204.9313   217.9381   227.7991
      7  C    Isotropic =   214.8961   Anisotropy =    20.0306
   XX=   225.4294   YX=     8.2513   ZX=    -3.5360
   XY=     3.5432   YY=   209.1642   ZY=    -7.1443
   XZ=    -0.8642   YZ=    -4.7315   ZZ=   210.0948
   Eigenvalues:   203.2631   213.1754   228.2499
      8  O    Isotropic =   352.3676   Anisotropy =    72.5344
   XX=   344.5049   YX=     9.8553   ZX=    16.4577
   XY=     6.5905   YY=   331.9518   ZY=    47.6148
   XZ=     6.3129   YZ=    18.3613   ZZ=   380.6460
   Eigenvalues:   315.1184   341.2604   400.7238
      9  C    Isotropic =   214.3673   Anisotropy =    14.7398
   XX=   223.6488   YX=     1.6948   ZX=     3.9765
   XY=    -0.0562   YY=   214.8114   ZY=     3.0894
   XZ=     1.3973   YZ=     3.1720   ZZ=   204.6417
   Eigenvalues:   203.4760   215.4321   224.1938
     10  C    Isotropic =   221.4241   Anisotropy =    25.1686
   XX=   221.9486   YX=    -9.0650   ZX=     0.7168
   XY=    -9.1366   YY=   233.1052   ZY=     1.8071
   XZ=     0.8299   YZ=    -1.4773   ZZ=   209.2185
   Eigenvalues:   209.1427   216.9265   238.2032
     11  C    Isotropic =   221.0838   Anisotropy =    26.4069
   XX=   221.0667   YX=     5.8068   ZX=     8.1935
   XY=     6.5628   YY=   220.2377   ZY=     9.8769
   XZ=     7.6357   YZ=    13.8711   ZZ=   221.9470
   Eigenvalues:   209.0917   215.4713   238.6884
     12  H    Isotropic =    32.5151   Anisotropy =    14.1616
   XX=    32.2978   YX=     5.0777   ZX=    -4.9354
   XY=     5.5720   YY=    33.5213   ZY=    -3.5300
   XZ=    -5.0135   YZ=    -3.9722   ZZ=    31.7262
   Eigenvalues:    26.7171    28.8719    41.9562
     13  H    Isotropic =    32.7096   Anisotropy =     7.8474
   XX=    35.0474   YX=     0.1710   ZX=     1.7846
   XY=     0.1680   YY=    26.3985   ZY=    -1.1652
   XZ=     1.9039   YZ=    -1.0083   ZZ=    36.6827
   Eigenvalues:    26.2696    33.9179    37.9411
     14  H    Isotropic =    32.5419   Anisotropy =    14.2487
   XX=    32.1858   YX=    -4.7040   ZX=    -5.5842
   XY=    -4.7282   YY=    32.9440   ZY=     3.5307
   XZ=    -5.7762   YZ=     4.1322   ZZ=    32.4960
   Eigenvalues:    26.5056    29.0791    42.0411
     15  H    Isotropic =    32.3944   Anisotropy =    15.3995
   XX=    40.6571   YX=    -0.0068   ZX=     5.0178
   XY=    -0.1251   YY=    26.8166   ZY=     0.1540
   XZ=     5.1700   YZ=     0.3592   ZZ=    29.7096
   Eigenvalues:    26.7446    27.7780    42.6608
     16  H    Isotropic =    31.2460   Anisotropy =     9.3575
   XX=    30.0858   YX=    -0.5280   ZX=     0.2065
   XY=    -0.0903   YY=    29.8838   ZY=     4.7622
   XZ=     0.6166   YZ=     5.8591   ZZ=    33.7685
   Eigenvalues:    26.1112    30.1425    37.4843
     17  H    Isotropic =    32.5209   Anisotropy =    12.5522
   XX=    34.9146   YX=    -4.1550   ZX=     0.2474
   XY=    -3.9560   YY=    37.5591   ZY=     3.2386
   XZ=     0.1228   YZ=     3.0501   ZZ=    25.0890
   Eigenvalues:    24.2109    32.4627    40.8890
     18  H    Isotropic =    33.2369   Anisotropy =    10.9039
   XX=    30.5328   YX=     0.7444   ZX=    -1.0389
   XY=     0.5698   YY=    28.7983   ZY=    -0.4699
   XZ=    -1.0922   YZ=    -0.1600   ZZ=    40.3796
   Eigenvalues:    28.5773    30.6272    40.5061
     19  H    Isotropic =    32.8565   Anisotropy =     7.9983
   XX=    34.0681   YX=     0.8097   ZX=    -0.9011
   XY=     0.4200   YY=    27.9529   ZY=    -4.0727
   XZ=    -0.4771   YZ=    -3.5876   ZZ=    36.5487
   Eigenvalues:    26.4794    33.9014    38.1887
     20  H    Isotropic =    32.6256   Anisotropy =    12.2973
   XX=    29.8338   YX=     1.4154   ZX=    -2.9396
   XY=     1.8207   YY=    38.2411   ZY=    -4.4053
   XZ=    -2.9802   YZ=    -4.5153   ZZ=    29.8018
   Eigenvalues:    26.4013    30.6516    40.8238
     21  H    Isotropic =    32.2150   Anisotropy =    14.9161
   XX=    32.2441   YX=     3.2105   ZX=     4.3313
   XY=     3.2160   YY=    30.2678   ZY=     6.4081
   XZ=     4.7729   YZ=     6.6920   ZZ=    34.1332
   Eigenvalues:    25.3663    29.1198    42.1591
     22  H    Isotropic =    31.9508   Anisotropy =    14.0881
   XX=    32.6348   YX=    -5.9613   ZX=    -2.0552
   XY=    -5.4478   YY=    37.0465   ZY=     1.3354
   XZ=    -2.0901   YZ=     1.6797   ZZ=    26.1711
   Eigenvalues:    25.5600    28.9495    41.3429
     23  H    Isotropic =    32.8278   Anisotropy =    11.6027
   XX=    30.5530   YX=    -0.7421   ZX=     1.8548
   XY=    -0.0404   YY=    30.0446   ZY=    -4.5314
   XZ=     2.7426   YZ=    -4.7915   ZZ=    37.8857
   Eigenvalues:    27.7180    30.2025    40.5629
     24  H    Isotropic =    35.1938   Anisotropy =    13.7259
   XX=    28.7578   YX=     1.9695   ZX=    -1.9908
   XY=     1.1982   YY=    33.0639   ZY=     0.2046
   XZ=    -3.4596   YZ=    -1.8452   ZZ=    43.7596
   Eigenvalues:    27.8846    33.3523    44.3444
     25  H    Isotropic =    32.6279   Anisotropy =     9.6857
   XX=    32.1899   YX=     0.3234   ZX=    -2.5928
   XY=    -0.2100   YY=    29.7544   ZY=    -4.4411
   XZ=    -3.1012   YZ=    -4.0866   ZZ=    35.9395
   Eigenvalues:    27.2254    31.5733    39.0851
     26  H    Isotropic =    32.7002   Anisotropy =    10.9539
   XX=    30.2368   YX=    -1.3023   ZX=     0.0427
   XY=    -1.4088   YY=    34.7027   ZY=    -6.0247
   XZ=     0.0050   YZ=    -5.7964   ZZ=    33.1613
   Eigenvalues:    27.6625    30.4354    40.0028
     27  H    Isotropic =    32.4849   Anisotropy =    11.3416
   XX=    31.2262   YX=    -1.9775   ZX=     1.0678
   XY=    -1.8791   YY=    34.2311   ZY=     6.8963
   XZ=     0.7174   YZ=     6.5968   ZZ=    31.9972
   Eigenvalues:    25.6076    31.8011    40.0459
     28  H    Isotropic =    32.4991   Anisotropy =    14.2631
   XX=    41.3990   YX=    -2.5649   ZX=    -0.0709
   XY=    -2.8940   YY=    29.6699   ZY=     0.8531
   XZ=    -0.0791   YZ=     1.0013   ZZ=    26.4284
   Eigenvalues:    26.1524    29.3370    42.0078
     29  H    Isotropic =    32.6366   Anisotropy =    11.3463
   XX=    29.7151   YX=     0.9412   ZX=     1.6309
   XY=     0.7762   YY=    28.2339   ZY=    -0.4449
   XZ=     1.4955   YZ=    -0.3869   ZZ=    39.9608
   Eigenvalues:    27.7488    29.9601    40.2008
     30  H    Isotropic =    31.8650   Anisotropy =    10.0802
   XX=    30.8669   YX=    -0.4486   ZX=     3.2845
   XY=    -0.5983   YY=    38.0903   ZY=     2.1986
   XZ=     2.9450   YZ=     2.6555   ZZ=    26.6377
   Eigenvalues:    24.5636    32.4462    38.5851
     31  H    Isotropic =    32.4671   Anisotropy =    14.6224
   XX=    41.1877   YX=     3.1134   ZX=     1.6469
   XY=     3.0916   YY=    28.9604   ZY=     1.6403
   XZ=     1.8070   YZ=     1.6273   ZZ=    27.2531
   Eigenvalues:    26.2619    28.9240    42.2153
 End of Minotr Frequency-dependent properties file   721 does not exist.
 End of Minotr Frequency-dependent properties file   722 does not exist.

 **********************************************************************

            Population analysis using the SCF density.

 **********************************************************************

 Orbital symmetries:
       Occupied  (A) (A) (A) (A) (A) (A) (A) (A) (A) (A) (A) (A)
                 (A) (A) (A) (A) (A) (A) (A) (A) (A) (A) (A) (A)
                 (A) (A) (A) (A) (A) (A) (A) (A) (A) (A) (A) (A)
                 (A) (A) (A) (A) (A) (A) (A) (A)
       Virtual   (A) (A) (A) (A) (A) (A) (A) (A) (A) (A) (A) (A)
                 (A) (A) (A) (A) (A) (A) (A) (A) (A) (A) (A) (A)
                 (A) (A) (A) (A) (A) (A) (A)
 The electronic state is 1-A.
 Alpha  occ. eigenvalues --  -20.23819 -11.08483 -11.04822 -11.04750 -11.04247
 Alpha  occ. eigenvalues --  -11.03855 -11.03775 -11.03716 -11.03291 -11.03067
 Alpha  occ. eigenvalues --  -11.02447  -1.27852  -1.08208  -1.03685  -0.96868
 Alpha  occ. eigenvalues --   -0.94458  -0.88880  -0.88420  -0.79960  -0.79017
 Alpha  occ. eigenvalues --   -0.72864  -0.68561  -0.64090  -0.60941  -0.58014
 Alpha  occ. eigenvalues --   -0.57618  -0.55683  -0.54652  -0.53081  -0.52639
 Alpha  occ. eigenvalues --   -0.51438  -0.50414  -0.50040  -0.48272  -0.46174
 Alpha  occ. eigenvalues --   -0.45460  -0.44450  -0.42868  -0.42401  -0.41757
 Alpha  occ. eigenvalues --   -0.39595  -0.39261  -0.35783  -0.32884
 Alpha virt. eigenvalues --    0.52549   0.55126   0.57619   0.59171   0.60732
 Alpha virt. eigenvalues --    0.61628   0.61885   0.63540   0.64184   0.65772
 Alpha virt. eigenvalues --    0.67771   0.68131   0.69945   0.71217   0.71973
 Alpha virt. eigenvalues --    0.72540   0.73540   0.75287   0.75831   0.76722
 Alpha virt. eigenvalues --    0.77003   0.77807   0.78561   0.79300   0.80033
 Alpha virt. eigenvalues --    0.80964   0.81820   0.83192   0.84885   0.85897
 Alpha virt. eigenvalues --    0.87033
          Condensed to atoms (all electrons):
              1          2          3          4          5          6
     1  C    4.744192   0.364570  -0.001284   0.000410  -0.000404  -0.023682
     2  C    0.364570   4.745817  -0.019202  -0.020015  -0.004773   0.360458
     3  C   -0.001284  -0.019202   4.746871  -0.023994   0.351581  -0.003531
     4  C    0.000410  -0.020015  -0.023994   4.762251   0.360962   0.361149
     5  C   -0.000404  -0.004773   0.351581   0.360962   4.796448  -0.020820
     6  C   -0.023682   0.360458  -0.003531   0.361149  -0.020820   4.761599
     7  C   -0.024323   0.361693   0.356878  -0.008068  -0.021731  -0.023712
     8  O    0.000000   0.000279   0.268269  -0.000039  -0.016625   0.000007
     9  C    0.000002   0.000011  -0.018179  -0.019444   0.359549   0.000596
    10  C    0.000000   0.000000   0.000539  -0.002975  -0.020429   0.000017
    11  C    0.000000   0.000000  -0.001839   0.000598  -0.021822  -0.000004
    12  H    0.382668  -0.020206   0.000001   0.000009   0.000010  -0.002244
    13  H    0.382389  -0.020143  -0.000110   0.000086  -0.000717  -0.001730
    14  H    0.382066  -0.020230   0.000002  -0.000018   0.000013   0.001255
    15  H   -0.025875   0.383844   0.001205   0.001134   0.000011  -0.023740
    16  H    0.000009   0.000250   0.380336   0.001263  -0.024495   0.000038
    17  H   -0.000014   0.001158   0.001187   0.384418  -0.019359  -0.022866
    18  H   -0.000015  -0.000130  -0.002441   0.380466  -0.023589  -0.022299
    19  H   -0.000842  -0.000027  -0.021978  -0.025677   0.378609  -0.002920
    20  H   -0.006129  -0.022083   0.000030  -0.022457  -0.000441   0.382702
    21  H    0.001287  -0.022024   0.000003  -0.022922   0.001237   0.382370
    22  H   -0.002878  -0.020580  -0.021364   0.000065   0.001050   0.001233
    23  H    0.001373  -0.022337  -0.022276  -0.000279  -0.000038  -0.001566
    24  H    0.000000  -0.000005  -0.041673   0.000062  -0.002626   0.000019
    25  H    0.000000   0.000000  -0.001608  -0.001388  -0.022983  -0.000003
    26  H    0.000000   0.000000   0.000008  -0.000064  -0.002529  -0.000005
    27  H    0.000000   0.000000  -0.000003  -0.001265  -0.000944   0.000006
    28  H    0.000000   0.000000  -0.000011   0.000043   0.001090   0.000000
    29  H    0.000000   0.000000  -0.000014   0.000008  -0.002215   0.000000
    30  H    0.000000   0.000000  -0.000752   0.000005  -0.001501   0.000000
    31  H    0.000000   0.000000   0.000017  -0.000013   0.001138   0.000000
              7          8          9         10         11         12
     1  C   -0.024323   0.000000   0.000002   0.000000   0.000000   0.382668
     2  C    0.361693   0.000279   0.000011   0.000000   0.000000  -0.020206
     3  C    0.356878   0.268269  -0.018179   0.000539  -0.001839   0.000001
     4  C   -0.008068  -0.000039  -0.019444  -0.002975   0.000598   0.000009
     5  C   -0.021731  -0.016625   0.359549  -0.020429  -0.021822   0.000010
     6  C   -0.023712   0.000007   0.000596   0.000017  -0.000004  -0.002244
     7  C    4.780795  -0.021450   0.000484  -0.000003   0.000005   0.001270
     8  O   -0.021450   7.847136  -0.001882   0.000004  -0.000512   0.000000
     9  C    0.000484  -0.001882   4.734493   0.364439   0.364087   0.000000
    10  C   -0.000003   0.000004   0.364439   4.744130  -0.027257   0.000000
    11  C    0.000005  -0.000512   0.364087  -0.027257   4.744485   0.000000
    12  H    0.001270   0.000000   0.000000   0.000000   0.000000   0.630793
    13  H   -0.001574   0.000000   0.000005   0.000000   0.000001  -0.022047
    14  H   -0.002360   0.000000   0.000000   0.000000   0.000000  -0.021605
    15  H   -0.023352  -0.000006   0.000000   0.000000   0.000000  -0.002851
    16  H   -0.024512  -0.019349  -0.000043  -0.000008  -0.000314   0.000003
    17  H    0.000065  -0.000005  -0.002047  -0.001505   0.000010  -0.000001
    18  H   -0.000163   0.000007  -0.001247   0.000042  -0.000003   0.000000
    19  H    0.000399   0.000543  -0.023805  -0.002057  -0.002464   0.000011
    20  H    0.001148   0.000000  -0.000003   0.000002   0.000000   0.000037
    21  H    0.000562   0.000000  -0.000014   0.000000   0.000000   0.000062
    22  H    0.382842   0.000173  -0.000009   0.000000   0.000000   0.000033
    23  H    0.379607  -0.002991  -0.000012   0.000000   0.000000  -0.000037
    24  H   -0.003172   0.256890  -0.000361  -0.000005   0.000066   0.000000
    25  H    0.000011  -0.000095   0.380546  -0.024939  -0.023378   0.000000
    26  H    0.000000   0.000000  -0.020774   0.381752  -0.001440   0.000000
    27  H    0.000000   0.000000  -0.019700   0.382683   0.001365   0.000000
    28  H    0.000000   0.000000  -0.019453   0.382762  -0.003823   0.000000
    29  H   -0.000001   0.000011  -0.020982  -0.001978   0.381451   0.000000
    30  H    0.000012   0.000336  -0.019001   0.001336   0.382969   0.000000
    31  H    0.000000   0.000006  -0.019772  -0.003224   0.382430   0.000000
             13         14         15         16         17         18
     1  C    0.382389   0.382066  -0.025875   0.000009  -0.000014  -0.000015
     2  C   -0.020143  -0.020230   0.383844   0.000250   0.001158  -0.000130
     3  C   -0.000110   0.000002   0.001205   0.380336   0.001187  -0.002441
     4  C    0.000086  -0.000018   0.001134   0.001263   0.384418   0.380466
     5  C   -0.000717   0.000013   0.000011  -0.024495  -0.019359  -0.023589
     6  C   -0.001730   0.001255  -0.023740   0.000038  -0.022866  -0.022299
     7  C   -0.001574  -0.002360  -0.023352  -0.024512   0.000065  -0.000163
     8  O    0.000000   0.000000  -0.000006  -0.019349  -0.000005   0.000007
     9  C    0.000005   0.000000   0.000000  -0.000043  -0.002047  -0.001247
    10  C    0.000000   0.000000   0.000000  -0.000008  -0.001505   0.000042
    11  C    0.000001   0.000000   0.000000  -0.000314   0.000010  -0.000003
    12  H   -0.022047  -0.021605  -0.002851   0.000003  -0.000001   0.000000
    13  H    0.631947  -0.021948   0.001959  -0.000288  -0.000008   0.000000
    14  H   -0.021948   0.630735  -0.002296  -0.000015   0.000001   0.000001
    15  H    0.001959  -0.002296   0.651370  -0.000025  -0.000027  -0.000003
    16  H   -0.000288  -0.000015  -0.000025   0.633848  -0.000033   0.000009
    17  H   -0.000008   0.000001  -0.000027  -0.000033   0.636283  -0.024045
    18  H    0.000000   0.000001  -0.000003   0.000009  -0.024045   0.655670
    19  H   -0.000413   0.000015   0.000002  -0.005034  -0.001798   0.002053
    20  H    0.000063   0.000092   0.000961   0.000002  -0.005375   0.001912
    21  H   -0.000002  -0.000038  -0.007147   0.000002  -0.000199  -0.005187
    22  H    0.000020   0.000198  -0.001605  -0.005313   0.000001   0.000001
    23  H   -0.000004   0.000025  -0.003551   0.001762   0.000005  -0.000466
    24  H    0.000000   0.000000  -0.000001   0.003622  -0.000019   0.000073
    25  H    0.000000   0.000000   0.000000   0.000000   0.000039   0.000334
    26  H    0.000000   0.000000   0.000000   0.000000  -0.000017   0.000009
    27  H    0.000000   0.000000   0.000000   0.000000  -0.001326   0.000047
    28  H    0.000000   0.000000   0.000000   0.000000   0.000017  -0.000005
    29  H    0.000000   0.000000   0.000000  -0.000012   0.000001   0.000000
    30  H    0.000000   0.000000   0.000000  -0.000699   0.000000   0.000001
    31  H    0.000000   0.000000   0.000000   0.000008  -0.000001   0.000000
             19         20         21         22         23         24
     1  C   -0.000842  -0.006129   0.001287  -0.002878   0.001373   0.000000
     2  C   -0.000027  -0.022083  -0.022024  -0.020580  -0.022337  -0.000005
     3  C   -0.021978   0.000030   0.000003  -0.021364  -0.022276  -0.041673
     4  C   -0.025677  -0.022457  -0.022922   0.000065  -0.000279   0.000062
     5  C    0.378609  -0.000441   0.001237   0.001050  -0.000038  -0.002626
     6  C   -0.002920   0.382702   0.382370   0.001233  -0.001566   0.000019
     7  C    0.000399   0.001148   0.000562   0.382842   0.379607  -0.003172
     8  O    0.000543   0.000000   0.000000   0.000173  -0.002991   0.256890
     9  C   -0.023805  -0.000003  -0.000014  -0.000009  -0.000012  -0.000361
    10  C   -0.002057   0.000002   0.000000   0.000000   0.000000  -0.000005
    11  C   -0.002464   0.000000   0.000000   0.000000   0.000000   0.000066
    12  H    0.000011   0.000037   0.000062   0.000033  -0.000037   0.000000
    13  H   -0.000413   0.000063  -0.000002   0.000020  -0.000004   0.000000
    14  H    0.000015   0.000092  -0.000038   0.000198   0.000025   0.000000
    15  H    0.000002   0.000961  -0.007147  -0.001605  -0.003551  -0.000001
    16  H   -0.005034   0.000002   0.000002  -0.005313   0.001762   0.003622
    17  H   -0.001798  -0.005375  -0.000199   0.000001   0.000005  -0.000019
    18  H    0.002053   0.001912  -0.005187   0.000001  -0.000466   0.000073
    19  H    0.656590   0.000302   0.000022  -0.000023  -0.000008  -0.000022
    20  H    0.000302   0.642990  -0.023945  -0.000034   0.000003   0.000000
    21  H    0.000022  -0.023945   0.646293  -0.000025   0.000177   0.000000
    22  H   -0.000023  -0.000034  -0.000025   0.633649  -0.024433  -0.000013
    23  H   -0.000008   0.000003   0.000177  -0.024433   0.647751   0.000796
    24  H   -0.000022   0.000000   0.000000  -0.000013   0.000796   0.611860
    25  H    0.001831   0.000000   0.000000  -0.000001   0.000002  -0.000504
    26  H    0.000425   0.000001   0.000000   0.000000   0.000000   0.000000
    27  H    0.000019   0.000002   0.000001   0.000000   0.000000   0.000000
    28  H    0.000003   0.000000   0.000000   0.000000   0.000000   0.000001
    29  H    0.000372   0.000000   0.000000   0.000000   0.000000  -0.000002
    30  H    0.000019   0.000000   0.000000   0.000001   0.000000  -0.000039
    31  H    0.000012   0.000000   0.000000   0.000000   0.000000   0.000000
             25         26         27         28         29         30
     1  C    0.000000   0.000000   0.000000   0.000000   0.000000   0.000000
     2  C    0.000000   0.000000   0.000000   0.000000   0.000000   0.000000
     3  C   -0.001608   0.000008  -0.000003  -0.000011  -0.000014  -0.000752
     4  C   -0.001388  -0.000064  -0.001265   0.000043   0.000008   0.000005
     5  C   -0.022983  -0.002529  -0.000944   0.001090  -0.002215  -0.001501
     6  C   -0.000003  -0.000005   0.000006   0.000000   0.000000   0.000000
     7  C    0.000011   0.000000   0.000000   0.000000  -0.000001   0.000012
     8  O   -0.000095   0.000000   0.000000   0.000000   0.000011   0.000336
     9  C    0.380546  -0.020774  -0.019700  -0.019453  -0.020982  -0.019001
    10  C   -0.024939   0.381752   0.382683   0.382762  -0.001978   0.001336
    11  C   -0.023378  -0.001440   0.001365  -0.003823   0.381451   0.382969
    12  H    0.000000   0.000000   0.000000   0.000000   0.000000   0.000000
    13  H    0.000000   0.000000   0.000000   0.000000   0.000000   0.000000
    14  H    0.000000   0.000000   0.000000   0.000000   0.000000   0.000000
    15  H    0.000000   0.000000   0.000000   0.000000   0.000000   0.000000
    16  H    0.000000   0.000000   0.000000   0.000000  -0.000012  -0.000699
    17  H    0.000039  -0.000017  -0.001326   0.000017   0.000001   0.000000
    18  H    0.000334   0.000009   0.000047  -0.000005   0.000000   0.000001
    19  H    0.001831   0.000425   0.000019   0.000003   0.000372   0.000019
    20  H    0.000000   0.000001   0.000002   0.000000   0.000000   0.000000
    21  H    0.000000   0.000000   0.000001   0.000000   0.000000   0.000000
    22  H   -0.000001   0.000000   0.000000   0.000000   0.000000   0.000001
    23  H    0.000002   0.000000   0.000000   0.000000   0.000000   0.000000
    24  H   -0.000504   0.000000   0.000000   0.000001  -0.000002  -0.000039
    25  H    0.649617   0.001893  -0.003119  -0.001438   0.001859  -0.002325
    26  H    0.001893   0.631219  -0.021556  -0.021500   0.000279  -0.000004
    27  H   -0.003119  -0.021556   0.633392  -0.022662   0.000006  -0.000038
    28  H   -0.001438  -0.021500  -0.022662   0.629340  -0.000003   0.000060
    29  H    0.001859   0.000279   0.000006  -0.000003   0.635362  -0.021704
    30  H   -0.002325  -0.000004  -0.000038   0.000060  -0.021704   0.617920
    31  H   -0.001972   0.000011   0.000048  -0.000061  -0.021718  -0.022038
             31
     1  C    0.000000
     2  C    0.000000
     3  C    0.000017
     4  C   -0.000013
     5  C    0.001138
     6  C    0.000000
     7  C    0.000000
     8  O    0.000006
     9  C   -0.019772
    10  C   -0.003224
    11  C    0.382430
    12  H    0.000000
    13  H    0.000000
    14  H    0.000000
    15  H    0.000000
    16  H    0.000008
    17  H   -0.000001
    18  H    0.000000
    19  H    0.000012
    20  H    0.000000
    21  H    0.000000
    22  H    0.000000
    23  H    0.000000
    24  H    0.000000
    25  H   -0.001972
    26  H    0.000011
    27  H    0.000048
    28  H   -0.000061
    29  H   -0.021718
    30  H   -0.022038
    31  H    0.632395
 Mulliken atomic charges:
              1
     1  C   -0.173521
     2  C   -0.026326
     3  C    0.073330
     4  C   -0.104311
     5  C   -0.043656
     6  C   -0.102325
     7  C   -0.111349
     8  O   -0.310710
     9  C   -0.017485
    10  C   -0.173325
    11  C   -0.174611
    12  H    0.054094
    13  H    0.052515
    14  H    0.054108
    15  H    0.049993
    16  H    0.058990
    17  H    0.055460
    18  H    0.038968
    19  H    0.045839
    20  H    0.050221
    21  H    0.049487
    22  H    0.057013
    23  H    0.046495
    24  H    0.175054
    25  H    0.047621
    26  H    0.052291
    27  H    0.053045
    28  H    0.055639
    29  H    0.049280
    30  H    0.065444
    31  H    0.052732
 Sum of Mulliken atomic charges =   0.00000
 Mulliken charges with hydrogens summed into heavy atoms:
              1
     1  C   -0.012804
     2  C    0.023667
     3  C    0.132319
     4  C   -0.009882
     5  C    0.002183
     6  C   -0.002617
     7  C   -0.007841
     8  O   -0.135656
     9  C    0.030136
    10  C   -0.012350
    11  C   -0.007156
 Sum of Mulliken charges with hydrogens summed into heavy atoms =   0.00000
 Electronic spatial extent (au):  <R**2>=           2044.4901
 Charge=              0.0000 electrons
 Dipole moment (field-independent basis, Debye):
    X=             -0.6005    Y=             -1.3118    Z=             -0.3772  Tot=              1.4912
 Quadrupole moment (field-independent basis, Debye-Ang):
   XX=            -67.8166   YY=            -72.5845   ZZ=            -65.2104
   XY=             -1.4765   XZ=             -0.0686   YZ=              0.2299
 Traceless Quadrupole moment (field-independent basis, Debye-Ang):
   XX=              0.7205   YY=             -4.0473   ZZ=              3.3268
   XY=             -1.4765   XZ=             -0.0686   YZ=              0.2299
 Octapole moment (field-independent basis, Debye-Ang**2):
  XXX=              2.7455  YYY=             -1.8177  ZZZ=            -11.5143  XYY=             -4.3825
  XXY=              4.0477  XXZ=             -3.1871  XZZ=              1.7625  YZZ=              6.4768
  YYZ=              2.2220  XYZ=             -0.3225
 Hexadecapole moment (field-independent basis, Debye-Ang**3):
 XXXX=          -1614.4437 YYYY=           -650.7564 ZZZZ=           -344.4720 XXXY=              5.5255
 XXXZ=             -2.9839 YYYX=             -1.6821 YYYZ=             -0.0520 ZZZX=             -1.2200
 ZZZY=            -19.5906 XXYY=           -378.4860 XXZZ=           -334.5696 YYZZ=           -157.4393
 XXYZ=             -2.9431 YYXZ=             -3.0255 ZZXY=              1.9685
 N-N= 6.977043325440D+02 E-N=-2.467321933643D+03  KE= 4.555461086871D+02
 ******************************Gaussian NBO Version 3.1******************************
             N A T U R A L   A T O M I C   O R B I T A L   A N D
          N A T U R A L   B O N D   O R B I T A L   A N A L Y S I S
 ******************************Gaussian NBO Version 3.1******************************
       /RESON  / : Allow strongly delocalized NBO set
       /NLMO   / : Form Natural Localized Molecular Orbitals
       /NMR /    : Analyze NMR Sheilding Tensor 

 Analyzing the SCF density

 Job title: comment                                                         

 Storage needed:     19864 in NPA,     23691 in NBO,     45933 in NLMO (  33549317 available)


 NATURAL POPULATIONS:  Natural atomic orbital occupancies 
                                                          
   NAO  Atom  No  lang   Type(AO)    Occupancy      Energy
 ----------------------------------------------------------
     1    C    1  S      Cor( 1S)     1.99997     -10.96643
     2    C    1  S      Val( 2S)     1.08077      -0.18380
     3    C    1  px     Val( 2p)     1.02732       0.08148
     4    C    1  py     Val( 2p)     1.02949       0.08105
     5    C    1  pz     Val( 2p)     0.99066       0.08817

     6    C    2  S      Cor( 1S)     1.99997     -10.99082
     7    C    2  S      Val( 2S)     1.07938      -0.19368
     8    C    2  px     Val( 2p)     0.98971       0.09898
     9    C    2  py     Val( 2p)     0.95797       0.10849
    10    C    2  pz     Val( 2p)     0.96159       0.10741

    11    C    3  S      Cor( 1S)     1.99989     -11.03488
    12    C    3  S      Val( 2S)     1.09247      -0.22082
    13    C    3  px     Val( 2p)     0.92024       0.10149
    14    C    3  py     Val( 2p)     0.90935       0.10701
    15    C    3  pz     Val( 2p)     0.93701       0.09285

    16    C    4  S      Cor( 1S)     1.99996     -10.97708
    17    C    4  S      Val( 2S)     1.08484      -0.19268
    18    C    4  px     Val( 2p)     0.98047       0.09116
    19    C    4  py     Val( 2p)     1.00682       0.09191
    20    C    4  pz     Val( 2p)     0.99458       0.09334

    21    C    5  S      Cor( 1S)     1.99995     -10.98814
    22    C    5  S      Val( 2S)     1.10456      -0.21376
    23    C    5  px     Val( 2p)     0.95908       0.10481
    24    C    5  py     Val( 2p)     0.96740       0.09978
    25    C    5  pz     Val( 2p)     0.99172       0.09625

    26    C    6  S      Cor( 1S)     1.99996     -10.97604
    27    C    6  S      Val( 2S)     1.08654      -0.19210
    28    C    6  px     Val( 2p)     0.97312       0.09931
    29    C    6  py     Val( 2p)     0.98788       0.09425
    30    C    6  pz     Val( 2p)     1.01675       0.09002

    31    C    7  S      Cor( 1S)     1.99996     -10.97613
    32    C    7  S      Val( 2S)     1.09292      -0.19928
    33    C    7  px     Val( 2p)     0.98795       0.08791
    34    C    7  py     Val( 2p)     0.99516       0.09244
    35    C    7  pz     Val( 2p)     1.01237       0.08517

    36    O    8  S      Cor( 1S)     1.99999     -20.14223
    37    O    8  S      Val( 2S)     1.75088      -0.99936
    38    O    8  px     Val( 2p)     1.82829      -0.31108
    39    O    8  py     Val( 2p)     1.57636      -0.21932
    40    O    8  pz     Val( 2p)     1.17606      -0.04213

    41    C    9  S      Cor( 1S)     1.99996     -10.99186
    42    C    9  S      Val( 2S)     1.08440      -0.19576
    43    C    9  px     Val( 2p)     0.94668       0.11300
    44    C    9  py     Val( 2p)     0.95825       0.10994
    45    C    9  pz     Val( 2p)     0.98609       0.10548

    46    C   10  S      Cor( 1S)     1.99997     -10.96452
    47    C   10  S      Val( 2S)     1.08133      -0.18267
    48    C   10  px     Val( 2p)     1.02182       0.08366
    49    C   10  py     Val( 2p)     0.99937       0.08715
    50    C   10  pz     Val( 2p)     1.02658       0.08594

    51    C   11  S      Cor( 1S)     1.99997     -10.95843
    52    C   11  S      Val( 2S)     1.08167      -0.17711
    53    C   11  px     Val( 2p)     1.02180       0.08950
    54    C   11  py     Val( 2p)     1.02234       0.09044
    55    C   11  pz     Val( 2p)     1.00482       0.09424

    56    H   12  S      Val( 1S)     0.96316       0.07285

    57    H   13  S      Val( 1S)     0.96509       0.07355

    58    H   14  S      Val( 1S)     0.96325       0.07322

    59    H   15  S      Val( 1S)     0.97400       0.06595

    60    H   16  S      Val( 1S)     0.97682       0.05816

    61    H   17  S      Val( 1S)     0.96600       0.07334

    62    H   18  S      Val( 1S)     0.98128       0.05874

    63    H   19  S      Val( 1S)     0.97919       0.06379

    64    H   20  S      Val( 1S)     0.97083       0.06930

    65    H   21  S      Val( 1S)     0.97129       0.06851

    66    H   22  S      Val( 1S)     0.96383       0.07230

    67    H   23  S      Val( 1S)     0.97309       0.06224

    68    H   24  S      Val( 1S)     0.81265       0.07540

    69    H   25  S      Val( 1S)     0.97806       0.06739

    70    H   26  S      Val( 1S)     0.96505       0.07327

    71    H   27  S      Val( 1S)     0.96447       0.07627

    72    H   28  S      Val( 1S)     0.96168       0.07576

    73    H   29  S      Val( 1S)     0.96783       0.07609

    74    H   30  S      Val( 1S)     0.95357       0.09286

    75    H   31  S      Val( 1S)     0.96442       0.07952


 Summary of Natural Population Analysis:                  
                                                          
                                       Natural Population 
                Natural  -----------------------------------------------
    Atom  No    Charge         Core      Valence    Rydberg      Total
 -----------------------------------------------------------------------
      C    1   -0.12821      1.99997     4.12824    0.00000     6.12821
      C    2    0.01138      1.99997     3.98865    0.00000     5.98862
      C    3    0.14103      1.99989     3.85908    0.00000     5.85897
      C    4   -0.06667      1.99996     4.06672    0.00000     6.06667
      C    5   -0.02270      1.99995     4.02275    0.00000     6.02270
      C    6   -0.06426      1.99996     4.06430    0.00000     6.06426
      C    7   -0.08837      1.99996     4.08840    0.00000     6.08837
      O    8   -0.33159      1.99999     6.33160    0.00000     8.33159
      C    9    0.02462      1.99996     3.97542    0.00000     5.97538
      C   10   -0.12907      1.99997     4.12910    0.00000     6.12907
      C   11   -0.13060      1.99997     4.13064    0.00000     6.13060
      H   12    0.03684      0.00000     0.96316    0.00000     0.96316
      H   13    0.03491      0.00000     0.96509    0.00000     0.96509
      H   14    0.03675      0.00000     0.96325    0.00000     0.96325
      H   15    0.02600      0.00000     0.97400    0.00000     0.97400
      H   16    0.02318      0.00000     0.97682    0.00000     0.97682
      H   17    0.03400      0.00000     0.96600    0.00000     0.96600
      H   18    0.01872      0.00000     0.98128    0.00000     0.98128
      H   19    0.02081      0.00000     0.97919    0.00000     0.97919
      H   20    0.02917      0.00000     0.97083    0.00000     0.97083
      H   21    0.02871      0.00000     0.97129    0.00000     0.97129
      H   22    0.03617      0.00000     0.96383    0.00000     0.96383
      H   23    0.02691      0.00000     0.97309    0.00000     0.97309
      H   24    0.18735      0.00000     0.81265    0.00000     0.81265
      H   25    0.02194      0.00000     0.97806    0.00000     0.97806
      H   26    0.03495      0.00000     0.96505    0.00000     0.96505
      H   27    0.03553      0.00000     0.96447    0.00000     0.96447
      H   28    0.03832      0.00000     0.96168    0.00000     0.96168
      H   29    0.03217      0.00000     0.96783    0.00000     0.96783
      H   30    0.04643      0.00000     0.95357    0.00000     0.95357
      H   31    0.03558      0.00000     0.96442    0.00000     0.96442
 =======================================================================
   * Total *    0.00000     21.99954    66.00046    0.00000    88.00000

                                 Natural Population      
 --------------------------------------------------------
   Core                      21.99954 ( 99.9979% of  22)
   Valence                   66.00046 (100.0007% of  66)
   Natural Minimal Basis     88.00000 (100.0000% of  88)
   Natural Rydberg Basis      0.00000 (  0.0000% of  88)
 --------------------------------------------------------

    Atom  No          Natural Electron Configuration
 ----------------------------------------------------------------------------
      C    1      [core]2S( 1.08)2p( 3.05)
      C    2      [core]2S( 1.08)2p( 2.91)
      C    3      [core]2S( 1.09)2p( 2.77)
      C    4      [core]2S( 1.08)2p( 2.98)
      C    5      [core]2S( 1.10)2p( 2.92)
      C    6      [core]2S( 1.09)2p( 2.98)
      C    7      [core]2S( 1.09)2p( 3.00)
      O    8      [core]2S( 1.75)2p( 4.58)
      C    9      [core]2S( 1.08)2p( 2.89)
      C   10      [core]2S( 1.08)2p( 3.05)
      C   11      [core]2S( 1.08)2p( 3.05)
      H   12            1S( 0.96)
      H   13            1S( 0.97)
      H   14            1S( 0.96)
      H   15            1S( 0.97)
      H   16            1S( 0.98)
      H   17            1S( 0.97)
      H   18            1S( 0.98)
      H   19            1S( 0.98)
      H   20            1S( 0.97)
      H   21            1S( 0.97)
      H   22            1S( 0.96)
      H   23            1S( 0.97)
      H   24            1S( 0.81)
      H   25            1S( 0.98)
      H   26            1S( 0.97)
      H   27            1S( 0.96)
      H   28            1S( 0.96)
      H   29            1S( 0.97)
      H   30            1S( 0.95)
      H   31            1S( 0.96)


 NATURAL BOND ORBITAL ANALYSIS:

                       Occupancies       Lewis Structure    Low   High
           Occ.    -------------------  -----------------   occ   occ
  Cycle   Thresh.   Lewis   Non-Lewis     CR  BD  3C  LP    (L)   (NL)   Dev
 =============================================================================
   1(1)    1.90    87.64112   0.35888     11  31   0   2     0      0    0.02
 -----------------------------------------------------------------------------

 Structure accepted: No low occupancy Lewis orbitals

 --------------------------------------------------------
   Core                     21.99954 ( 99.998% of  22)
   Valence Lewis            65.64158 ( 99.457% of  66)
  ==================       ============================
   Total Lewis              87.64112 ( 99.592% of  88)
  -----------------------------------------------------
   Valence non-Lewis         0.35888 (  0.408% of  88)
   Rydberg non-Lewis         0.00000 (  0.000% of  88)
  ==================       ============================
   Total non-Lewis           0.35888 (  0.408% of  88)
 --------------------------------------------------------


       (Occupancy)   Bond orbital/ Coefficients/ Hybrids
 ---------------------------------------------------------------------------------
     1. (1.99066) BD ( 1) C   1 - C   2  
                ( 50.89%)   0.7134* C   1 s( 25.84%)p 2.87( 74.16%)
                                            0.0001  0.5083  0.1499  0.0410 -0.8470
                ( 49.11%)   0.7008* C   2 s( 25.09%)p 2.99( 74.91%)
                                            0.0000  0.5009 -0.0972 -0.0439  0.8589
     2. (1.99470) BD ( 1) C   1 - H  12  
                ( 51.84%)   0.7200* C   1 s( 24.63%)p 3.06( 75.37%)
                                            0.0000  0.4963 -0.4642 -0.7109  0.1812
                ( 48.16%)   0.6940* H  12 s(100.00%)
                                            1.0000
     3. (1.99503) BD ( 1) C   1 - H  13  
                ( 51.80%)   0.7197* C   1 s( 24.93%)p 3.01( 75.07%)
                                            0.0000  0.4993  0.7510 -0.0321  0.4309
                ( 48.20%)   0.6943* H  13 s(100.00%)
                                            1.0000
     4. (1.99493) BD ( 1) C   1 - H  14  
                ( 51.85%)   0.7201* C   1 s( 24.61%)p 3.06( 75.39%)
                                            0.0000  0.4961 -0.4450  0.7014  0.2530
                ( 48.15%)   0.6939* H  14 s(100.00%)
                                            1.0000
     5. (1.98536) BD ( 1) C   2 - C   6  
                ( 49.66%)   0.7047* C   2 s( 25.23%)p 2.96( 74.77%)
                                            0.0000  0.5022  0.4447 -0.6877 -0.2777
                ( 50.34%)   0.7095* C   6 s( 25.74%)p 2.89( 74.26%)
                                            0.0001  0.5073 -0.3944  0.7062  0.2973
     6. (1.98469) BD ( 1) C   2 - C   7  
                ( 49.49%)   0.7035* C   2 s( 25.28%)p 2.96( 74.72%)
                                            0.0000  0.5028  0.4227  0.7247 -0.2083
                ( 50.51%)   0.7107* C   7 s( 25.60%)p 2.91( 74.40%)
                                            0.0001  0.5060 -0.3885 -0.7297  0.2463
     7. (1.98535) BD ( 1) C   2 - H  15  
                ( 51.19%)   0.7155* C   2 s( 24.41%)p 3.10( 75.59%)
                                            0.0000  0.4941 -0.7837  0.0062 -0.3765
                ( 48.81%)   0.6986* H  15 s(100.00%)
                                            1.0000
     8. (1.98184) BD ( 1) C   3 - C   5  
                ( 49.98%)   0.7069* C   3 s( 25.78%)p 2.88( 74.22%)
                                            0.0001  0.5077  0.3900 -0.7682  0.0065
                ( 50.02%)   0.7073* C   5 s( 25.03%)p 2.99( 74.97%)
                                            0.0000  0.5003 -0.3738  0.7783 -0.0644
     9. (1.98725) BD ( 1) C   3 - C   7  
                ( 49.38%)   0.7027* C   3 s( 25.89%)p 2.86( 74.11%)
                                            0.0000  0.5088 -0.8175 -0.0809 -0.2575
                ( 50.62%)   0.7115* C   7 s( 25.39%)p 2.94( 74.61%)
                                            0.0000  0.5039  0.8206  0.0035  0.2696
    10. (1.98797) BD ( 1) C   3 - O   8  
                ( 41.05%)   0.6407* C   3 s( 22.15%)p 3.52( 77.85%)
                                            0.0000  0.4706  0.4222  0.5206 -0.5739
                ( 58.95%)   0.7678* O   8 s( 16.33%)p 5.12( 83.67%)
                                            0.0000  0.4041 -0.4292 -0.6209  0.5166
    11. (1.98778) BD ( 1) C   3 - H  16  
                ( 51.27%)   0.7161* C   3 s( 26.19%)p 2.82( 73.81%)
                                           -0.0001  0.5117  0.0376  0.3639  0.7774
                ( 48.73%)   0.6980* H  16 s(100.00%)
                                            1.0000
    12. (1.98609) BD ( 1) C   4 - C   5  
                ( 50.62%)   0.7115* C   4 s( 25.44%)p 2.93( 74.56%)
                                            0.0001  0.5044  0.3774  0.5351  0.5630
                ( 49.38%)   0.7027* C   5 s( 24.91%)p 3.01( 75.09%)
                                            0.0000  0.4991 -0.3447 -0.5350 -0.5881
    13. (1.98941) BD ( 1) C   4 - C   6  
                ( 50.00%)   0.7071* C   4 s( 25.02%)p 3.00( 74.98%)
                                            0.0000  0.5002 -0.8328 -0.1068  0.2116
                ( 50.00%)   0.7071* C   6 s( 25.33%)p 2.95( 74.67%)
                                            0.0000  0.5033  0.8282  0.1744 -0.1742
    14. (1.98941) BD ( 1) C   4 - H  17  
                ( 51.69%)   0.7189* C   4 s( 25.03%)p 2.99( 74.97%)
                                            0.0000  0.5003  0.4017 -0.7669  0.0114
                ( 48.31%)   0.6951* H  17 s(100.00%)
                                            1.0000
    15. (1.99124) BD ( 1) C   4 - H  18  
                ( 50.97%)   0.7140* C   4 s( 24.51%)p 3.08( 75.49%)
                                            0.0000  0.4951  0.0511  0.3378 -0.7989
                ( 49.03%)   0.7002* H  18 s(100.00%)
                                            1.0000
    16. (1.97811) BD ( 1) C   5 - C   9  
                ( 50.41%)   0.7100* C   5 s( 25.93%)p 2.86( 74.07%)
                                            0.0001  0.5092  0.8482  0.0694 -0.1281
                ( 49.59%)   0.7042* C   9 s( 25.25%)p 2.96( 74.75%)
                                            0.0001  0.5025 -0.8571 -0.0580  0.0978
    17. (1.98383) BD ( 1) C   5 - H  19  
                ( 50.96%)   0.7139* C   5 s( 24.13%)p 3.14( 75.87%)
                                            0.0000  0.4912 -0.1484 -0.3211  0.7960
                ( 49.04%)   0.7003* H  19 s(100.00%)
                                            1.0000
    18. (1.99138) BD ( 1) C   6 - H  20  
                ( 51.47%)   0.7174* C   6 s( 24.73%)p 3.04( 75.27%)
                                            0.0000  0.4973 -0.0444 -0.6317  0.5930
                ( 48.53%)   0.6966* H  20 s(100.00%)
                                            1.0000
    19. (1.99121) BD ( 1) C   6 - H  21  
                ( 51.39%)   0.7169* C   6 s( 24.20%)p 3.13( 75.80%)
                                            0.0000  0.4920 -0.3956 -0.2680 -0.7278
                ( 48.61%)   0.6972* H  21 s(100.00%)
                                            1.0000
    20. (1.98993) BD ( 1) C   7 - H  22  
                ( 51.78%)   0.7196* C   7 s( 24.87%)p 3.02( 75.13%)
                                            0.0000  0.4987 -0.4188  0.6815  0.3339
                ( 48.22%)   0.6944* H  22 s(100.00%)
                                            1.0000
    21. (1.98795) BD ( 1) C   7 - H  23  
                ( 51.30%)   0.7162* C   7 s( 24.14%)p 3.14( 75.86%)
                                            0.0000  0.4914 -0.0164  0.0561 -0.8690
                ( 48.70%)   0.6979* H  23 s(100.00%)
                                            1.0000
    22. (1.98882) BD ( 1) O   8 - H  24  
                ( 59.40%)   0.7707* O   8 s( 16.69%)p 4.99( 83.31%)
                                            0.0000 -0.4086  0.0048  0.4095  0.8157
                ( 40.60%)   0.6372* H  24 s(100.00%)
                                           -1.0000
    23. (1.98866) BD ( 1) C   9 - C  10  
                ( 49.00%)   0.7000* C   9 s( 25.05%)p 2.99( 74.95%)
                                            0.0000  0.5005  0.3531 -0.7885  0.0551
                ( 51.00%)   0.7142* C  10 s( 25.80%)p 2.88( 74.20%)
                                            0.0001  0.5079 -0.3913  0.7663 -0.0408
    24. (1.98892) BD ( 1) C   9 - C  11  
                ( 49.26%)   0.7018* C   9 s( 24.95%)p 3.01( 75.05%)
                                            0.0000  0.4995  0.3292  0.5078  0.6199
                ( 50.74%)   0.7123* C  11 s( 25.76%)p 2.88( 74.24%)
                                            0.0001  0.5075 -0.3577 -0.4992 -0.6044
    25. (1.98524) BD ( 1) C   9 - H  25  
                ( 51.05%)   0.7145* C   9 s( 24.75%)p 3.04( 75.25%)
                                            0.0000  0.4975  0.1799  0.3421 -0.7766
                ( 48.95%)   0.6997* H  25 s(100.00%)
                                            1.0000
    26. (1.99564) BD ( 1) C  10 - H  26  
                ( 51.79%)   0.7197* C  10 s( 24.86%)p 3.02( 75.14%)
                                            0.0000  0.4986 -0.2452 -0.4174  0.7191
                ( 48.21%)   0.6943* H  26 s(100.00%)
                                            1.0000
    27. (1.99451) BD ( 1) C  10 - H  27  
                ( 51.79%)   0.7197* C  10 s( 24.64%)p 3.06( 75.36%)
                                            0.0000  0.4964 -0.2149 -0.4757 -0.6936
                ( 48.21%)   0.6943* H  27 s(100.00%)
                                            1.0000
    28. (1.99413) BD ( 1) C  10 - H  28  
                ( 51.91%)   0.7205* C  10 s( 24.70%)p 3.05( 75.30%)
                                            0.0000  0.4970  0.8606  0.1107  0.0131
                ( 48.09%)   0.6935* H  28 s(100.00%)
                                            1.0000
    29. (1.99547) BD ( 1) C  11 - H  29  
                ( 51.65%)   0.7187* C  11 s( 24.71%)p 3.05( 75.29%)
                                            0.0000  0.4971 -0.1853 -0.3148  0.7871
                ( 48.35%)   0.6954* H  29 s(100.00%)
                                            1.0000
    30. (1.99534) BD ( 1) C  11 - H  30  
                ( 52.37%)   0.7237* C  11 s( 24.88%)p 3.02( 75.12%)
                                            0.0000  0.4988 -0.3089  0.8072 -0.0650
                ( 47.63%)   0.6901* H  30 s(100.00%)
                                            1.0000
    31. (1.99465) BD ( 1) C  11 - H  31  
                ( 51.78%)   0.7196* C  11 s( 24.65%)p 3.06( 75.35%)
                                            0.0000  0.4965  0.8616  0.0145 -0.1049
                ( 48.22%)   0.6944* H  31 s(100.00%)
                                            1.0000
    32. (1.99997) CR ( 1) C   1           s(100.00%)
                                            1.0000  0.0000  0.0000  0.0000  0.0001
    33. (1.99997) CR ( 1) C   2           s(100.00%)
                                            1.0000  0.0000  0.0000  0.0000  0.0000
    34. (1.99989) CR ( 1) C   3           s(100.00%)p 0.00(  0.00%)
                                            1.0000  0.0000  0.0000  0.0001  0.0000
    35. (1.99996) CR ( 1) C   4           s(100.00%)
                                            1.0000  0.0000  0.0000 -0.0001  0.0000
    36. (1.99995) CR ( 1) C   5           s(100.00%)
                                            1.0000  0.0000  0.0000  0.0000  0.0000
    37. (1.99996) CR ( 1) C   6           s(100.00%)
                                            1.0000  0.0000  0.0000 -0.0001  0.0000
    38. (1.99996) CR ( 1) C   7           s(100.00%)
                                            1.0000  0.0000  0.0000  0.0001  0.0000
    39. (1.99999) CR ( 1) O   8           s(100.00%)
                                            1.0000  0.0000  0.0000  0.0000  0.0000
    40. (1.99996) CR ( 1) C   9           s(100.00%)
                                            1.0000  0.0000  0.0001  0.0000  0.0000
    41. (1.99997) CR ( 1) C  10           s(100.00%)
                                            1.0000  0.0000  0.0001 -0.0001  0.0000
    42. (1.99997) CR ( 1) C  11           s(100.00%)
                                            1.0000  0.0000  0.0001  0.0000  0.0001
    43. (1.99317) LP ( 1) O   8           s( 66.84%)p 0.50( 33.16%)
                                            0.0000  0.8175  0.2539  0.4910  0.1615
    44. (1.97289) LP ( 2) O   8           s(  0.14%)p99.99( 99.86%)
                                            0.0000  0.0371 -0.8668  0.4535 -0.2041
    45. (0.01076) BD*( 1) C   1 - C   2  
                ( 49.11%)   0.7008* C   1 s( 25.84%)p 2.87( 74.16%)
                                           -0.0001 -0.5083 -0.1499 -0.0410  0.8470
                ( 50.89%)  -0.7134* C   2 s( 25.09%)p 2.99( 74.91%)
                                            0.0000 -0.5009  0.0972  0.0439 -0.8589
    46. (0.00483) BD*( 1) C   1 - H  12  
                ( 48.16%)   0.6940* C   1 s( 24.63%)p 3.06( 75.37%)
                                            0.0000 -0.4963  0.4642  0.7109 -0.1812
                ( 51.84%)  -0.7200* H  12 s(100.00%)
                                           -1.0000
    47. (0.00672) BD*( 1) C   1 - H  13  
                ( 48.20%)   0.6943* C   1 s( 24.93%)p 3.01( 75.07%)
                                            0.0000 -0.4993 -0.7510  0.0321 -0.4309
                ( 51.80%)  -0.7197* H  13 s(100.00%)
                                           -1.0000
    48. (0.00514) BD*( 1) C   1 - H  14  
                ( 48.15%)   0.6939* C   1 s( 24.61%)p 3.06( 75.39%)
                                            0.0000 -0.4961  0.4450 -0.7014 -0.2530
                ( 51.85%)  -0.7201* H  14 s(100.00%)
                                           -1.0000
    49. (0.01733) BD*( 1) C   2 - C   6  
                ( 50.34%)   0.7095* C   2 s( 25.23%)p 2.96( 74.77%)
                                            0.0000  0.5022  0.4447 -0.6877 -0.2777
                ( 49.66%)  -0.7047* C   6 s( 25.74%)p 2.89( 74.26%)
                                            0.0001  0.5073 -0.3944  0.7062  0.2973
    50. (0.01517) BD*( 1) C   2 - C   7  
                ( 50.51%)   0.7107* C   2 s( 25.28%)p 2.96( 74.72%)
                                            0.0000  0.5028  0.4227  0.7247 -0.2083
                ( 49.49%)  -0.7035* C   7 s( 25.60%)p 2.91( 74.40%)
                                            0.0001  0.5060 -0.3885 -0.7297  0.2463
    51. (0.00974) BD*( 1) C   2 - H  15  
                ( 48.81%)   0.6986* C   2 s( 24.41%)p 3.10( 75.59%)
                                            0.0000 -0.4941  0.7837 -0.0062  0.3765
                ( 51.19%)  -0.7155* H  15 s(100.00%)
                                           -1.0000
    52. (0.03535) BD*( 1) C   3 - C   5  
                ( 50.02%)   0.7073* C   3 s( 25.78%)p 2.88( 74.22%)
                                            0.0001  0.5077  0.3900 -0.7682  0.0065
                ( 49.98%)  -0.7069* C   5 s( 25.03%)p 2.99( 74.97%)
                                            0.0000  0.5003 -0.3738  0.7783 -0.0644
    53. (0.02745) BD*( 1) C   3 - C   7  
                ( 50.62%)   0.7115* C   3 s( 25.89%)p 2.86( 74.11%)
                                            0.0000  0.5088 -0.8175 -0.0809 -0.2575
                ( 49.38%)  -0.7027* C   7 s( 25.39%)p 2.94( 74.61%)
                                            0.0000  0.5039  0.8206  0.0035  0.2696
    54. (0.02143) BD*( 1) C   3 - O   8  
                ( 58.95%)   0.7678* C   3 s( 22.15%)p 3.52( 77.85%)
                                            0.0000  0.4706  0.4222  0.5206 -0.5739
                ( 41.05%)  -0.6407* O   8 s( 16.33%)p 5.12( 83.67%)
                                            0.0000  0.4041 -0.4292 -0.6209  0.5166
    55. (0.01608) BD*( 1) C   3 - H  16  
                ( 48.73%)   0.6980* C   3 s( 26.19%)p 2.82( 73.81%)
                                            0.0001 -0.5117 -0.0376 -0.3639 -0.7774
                ( 51.27%)  -0.7161* H  16 s(100.00%)
                                           -1.0000
    56. (0.01622) BD*( 1) C   4 - C   5  
                ( 49.38%)   0.7027* C   4 s( 25.44%)p 2.93( 74.56%)
                                           -0.0001 -0.5044 -0.3774 -0.5351 -0.5630
                ( 50.62%)  -0.7115* C   5 s( 24.91%)p 3.01( 75.09%)
                                            0.0000 -0.4991  0.3447  0.5350  0.5881
    57. (0.01180) BD*( 1) C   4 - C   6  
                ( 50.00%)   0.7071* C   4 s( 25.02%)p 3.00( 74.98%)
                                            0.0000 -0.5002  0.8328  0.1068 -0.2116
                ( 50.00%)  -0.7071* C   6 s( 25.33%)p 2.95( 74.67%)
                                            0.0000 -0.5033 -0.8282 -0.1744  0.1742
    58. (0.00939) BD*( 1) C   4 - H  17  
                ( 48.31%)   0.6951* C   4 s( 25.03%)p 2.99( 74.97%)
                                            0.0000 -0.5003 -0.4017  0.7669 -0.0114
                ( 51.69%)  -0.7189* H  17 s(100.00%)
                                           -1.0000
    59. (0.00989) BD*( 1) C   4 - H  18  
                ( 49.03%)   0.7002* C   4 s( 24.51%)p 3.08( 75.49%)
                                            0.0000 -0.4951 -0.0511 -0.3378  0.7989
                ( 50.97%)  -0.7140* H  18 s(100.00%)
                                           -1.0000
    60. (0.02145) BD*( 1) C   5 - C   9  
                ( 49.59%)   0.7042* C   5 s( 25.93%)p 2.86( 74.07%)
                                           -0.0001 -0.5092 -0.8482 -0.0694  0.1281
                ( 50.41%)  -0.7100* C   9 s( 25.25%)p 2.96( 74.75%)
                                           -0.0001 -0.5025  0.8571  0.0580 -0.0978
    61. (0.01234) BD*( 1) C   5 - H  19  
                ( 49.04%)   0.7003* C   5 s( 24.13%)p 3.14( 75.87%)
                                            0.0000 -0.4912  0.1484  0.3211 -0.7960
                ( 50.96%)  -0.7139* H  19 s(100.00%)
                                           -1.0000
    62. (0.00862) BD*( 1) C   6 - H  20  
                ( 48.53%)   0.6966* C   6 s( 24.73%)p 3.04( 75.27%)
                                            0.0000 -0.4973  0.0444  0.6317 -0.5930
                ( 51.47%)  -0.7174* H  20 s(100.00%)
                                           -1.0000
    63. (0.00671) BD*( 1) C   6 - H  21  
                ( 48.61%)   0.6972* C   6 s( 24.20%)p 3.13( 75.80%)
                                            0.0000 -0.4920  0.3956  0.2680  0.7278
                ( 51.39%)  -0.7169* H  21 s(100.00%)
                                           -1.0000
    64. (0.00832) BD*( 1) C   7 - H  22  
                ( 48.22%)   0.6944* C   7 s( 24.87%)p 3.02( 75.13%)
                                            0.0000 -0.4987  0.4188 -0.6815 -0.3339
                ( 51.78%)  -0.7196* H  22 s(100.00%)
                                           -1.0000
    65. (0.00948) BD*( 1) C   7 - H  23  
                ( 48.70%)   0.6979* C   7 s( 24.14%)p 3.14( 75.86%)
                                            0.0000 -0.4914  0.0164 -0.0561  0.8690
                ( 51.30%)  -0.7162* H  23 s(100.00%)
                                           -1.0000
    66. (0.00872) BD*( 1) O   8 - H  24  
                ( 40.60%)   0.6372* O   8 s( 16.69%)p 4.99( 83.31%)
                                            0.0000  0.4086 -0.0048 -0.4095 -0.8157
                ( 59.40%)  -0.7707* H  24 s(100.00%)
                                            1.0000
    67. (0.01012) BD*( 1) C   9 - C  10  
                ( 51.00%)   0.7142* C   9 s( 25.05%)p 2.99( 74.95%)
                                            0.0000  0.5005  0.3531 -0.7885  0.0551
                ( 49.00%)  -0.7000* C  10 s( 25.80%)p 2.88( 74.20%)
                                            0.0001  0.5079 -0.3913  0.7663 -0.0408
    68. (0.00990) BD*( 1) C   9 - C  11  
                ( 50.74%)   0.7123* C   9 s( 24.95%)p 3.01( 75.05%)
                                            0.0000  0.4995  0.3292  0.5078  0.6199
                ( 49.26%)  -0.7018* C  11 s( 25.76%)p 2.88( 74.24%)
                                            0.0001  0.5075 -0.3577 -0.4992 -0.6044
    69. (0.01219) BD*( 1) C   9 - H  25  
                ( 48.95%)   0.6997* C   9 s( 24.75%)p 3.04( 75.25%)
                                            0.0000 -0.4975 -0.1799 -0.3421  0.7766
                ( 51.05%)  -0.7145* H  25 s(100.00%)
                                           -1.0000
    70. (0.00585) BD*( 1) C  10 - H  26  
                ( 48.21%)   0.6943* C  10 s( 24.86%)p 3.02( 75.14%)
                                            0.0000 -0.4986  0.2452  0.4174 -0.7191
                ( 51.79%)  -0.7197* H  26 s(100.00%)
                                           -1.0000
    71. (0.00578) BD*( 1) C  10 - H  27  
                ( 48.21%)   0.6943* C  10 s( 24.64%)p 3.06( 75.36%)
                                            0.0000 -0.4964  0.2149  0.4757  0.6936
                ( 51.79%)  -0.7197* H  27 s(100.00%)
                                           -1.0000
    72. (0.00519) BD*( 1) C  10 - H  28  
                ( 48.09%)   0.6935* C  10 s( 24.70%)p 3.05( 75.30%)
[...]
    9      -0.8112       -0.5166      -0.2946        -1.7620       0.9508
   10      21.6797        5.6796      16.0002        11.1216      10.5582
   11       1.0921        0.4475       0.6446        -0.1543       1.2465
   16      -0.3139       -0.4103       0.0964        -1.3578       1.0440
   21      -0.9877       -1.7567       0.7690        -2.1385       1.1509
   22      24.9034       11.1095      13.7939        10.4747      14.4287
   30      -0.2864       -1.0236       0.7372        -0.7848       0.4984
   39     271.1745       -0.0061     271.1806        -0.0024     271.1769
   43      33.5180        2.4965      31.0215        -3.9477      37.4657
   44       1.4104      -36.8522      38.2626       -38.4752      39.8857
 Sum      350.4094      -22.1229     372.5323       -27.9698     378.3792

 Contributions to Isotropic shielding for atom    9 (   214.3673 ppm):
                         Standard Origin              Atomic Origin
 NLMO      Total    Paramagnetic  Diamagnetic   Paramagnetic  Diamagnetic
   10      -0.0544       -0.4447       0.3903        -1.3362       1.2818
   16       5.5711       -9.2488      14.8199        -2.0036       7.5747
   23      -1.3137       -4.5018       3.1881        -8.8259       7.5123
   24      -0.7770       -5.3759       4.5989        -8.3925       7.6155
   25       5.8775       -3.0771       8.9546        -5.0614      10.9389
   26       0.9656       -0.4600       1.4257        -0.0994       1.0650
   27       0.7308       -0.4849       1.2157        -0.2605       0.9912
   29       0.8828       -0.4243       1.3071        -0.1734       1.0562
   30       0.6571       -0.5894       1.2465        -0.3455       1.0026
   31       0.6794       -0.1692       0.8486        -0.3270       1.0064
   40     199.9212       -0.0011     199.9223         0.0019     199.9193
 Sum      213.1404      -24.7770     237.9175       -26.8234     239.9638

 Contributions to Isotropic shielding for atom   10 (   221.4241 ppm):
                         Standard Origin              Atomic Origin
 NLMO      Total    Paramagnetic  Diamagnetic   Paramagnetic  Diamagnetic
   23       4.5263      -11.1734      15.6997        -3.4672       7.9935
   24      -0.4556        0.2023      -0.6578        -1.1904       0.7349
   25       0.2844       -0.0735       0.3579        -0.7743       1.0587
   26       6.0492       -4.5490      10.5982        -5.0799      11.1291
   27       6.0695       -3.6189       9.6884        -5.0157      11.0852
   28       4.7584        2.3719       2.3865        -6.3834      11.1418
   31      -0.1792       -0.6831       0.5039        -1.1152       0.9360
   41     200.0746       -0.0036     200.0782         0.0022     200.0724
 Sum      221.1277      -17.5273     238.6550       -23.0238     244.1515

 Contributions to Isotropic shielding for atom   11 (   221.0838 ppm):
                         Standard Origin              Atomic Origin
 NLMO      Total    Paramagnetic  Diamagnetic   Paramagnetic  Diamagnetic
   10       0.0283       -0.1900       0.2183        -1.1455       1.1738
   23      -0.4502        0.1511      -0.6012        -1.1851       0.7349
   24       4.2196      -10.3086      14.5282        -3.6568       7.8764
   25       0.3479       -0.0727       0.4206        -0.6536       1.0016
   28      -0.2562       -0.9730       0.7168        -1.2254       0.9692
   29       6.2003       -4.0149      10.2151        -4.8670      11.0673
   30       6.0365       -5.4122      11.4487        -5.2827      11.3192
   31       4.6750        2.2128       2.4622        -6.4208      11.0959
   42     200.0732       -0.0033     200.0765         0.0020     200.0712
 Sum      220.8744      -18.6108     239.4853       -24.4351     245.3095

 Contributions to Isotropic shielding for atom   12 (    32.5151 ppm):
                         Standard Origin              Atomic Origin
 NLMO      Total    Paramagnetic  Diamagnetic   Paramagnetic  Diamagnetic
    1       1.2265        0.4666       0.7599         0.2257       1.0008
    2      26.3563        0.0877      26.2686         0.4422      25.9141
    3       2.0708        0.6609       1.4099         0.2184       1.8524
    4       1.8898        2.2891      -0.3993         0.0466       1.8432
 Sum       31.5434        3.5043      28.0392         0.9329      30.6105

 Contributions to Isotropic shielding for atom   13 (    32.7096 ppm):
                         Standard Origin              Atomic Origin
 NLMO      Total    Paramagnetic  Diamagnetic   Paramagnetic  Diamagnetic
    1       1.6659       -1.2401       2.9061         0.7905       0.8755
    2       1.9701        1.0881       0.8820         0.1314       1.8387
    3      26.3355        0.4004      25.9351         0.3708      25.9647
    4       1.9641        0.8484       1.1157         0.1277       1.8364
 Sum       31.9356        1.0967      30.8389         1.4204      30.5152

 Contributions to Isotropic shielding for atom   14 (    32.5419 ppm):
                         Standard Origin              Atomic Origin
 NLMO      Total    Paramagnetic  Diamagnetic   Paramagnetic  Diamagnetic
    1       1.2769        0.2895       0.9873         0.2593       1.0175
    2       1.9022        2.3678      -0.4656         0.0618       1.8404
    3       2.0772        0.4993       1.5779         0.2283       1.8489
    4      26.3712        0.1566      26.2146         0.4605      25.9106
 Sum       31.6274        3.3132      28.3142         1.0100      30.6175

 Contributions to Isotropic shielding for atom   15 (    32.3944 ppm):
                         Standard Origin              Atomic Origin
 NLMO      Total    Paramagnetic  Diamagnetic   Paramagnetic  Diamagnetic
    1       0.8272        2.3162      -1.4889        -0.2293       1.0566
    5       1.2117        1.3866      -0.1749         0.2066       1.0051
    6       1.2612        1.2204       0.0409         0.3067       0.9546
    7      26.5158       -0.4099      26.9258         0.5026      26.0132
   19      -0.1111       -0.1571       0.0459        -1.2817       1.1706
   21       0.1369        0.1373      -0.0003        -0.9159       1.0529
 Sum       29.8418        4.4934      25.3484        -1.4110      31.2528

 Contributions to Isotropic shielding for atom   16 (    31.2460 ppm):
                         Standard Origin              Atomic Origin
 NLMO      Total    Paramagnetic  Diamagnetic   Paramagnetic  Diamagnetic
    8       1.0492       -0.0629       1.1121        -0.0692       1.1184
    9       0.7050        0.6836       0.0214        -0.3249       1.0299
   10       0.9679        0.8462       0.1216        -1.0900       2.0579
   11      26.3110        0.3796      25.9314         0.7255      25.5855
   17      -0.0195       -0.2740       0.2545        -1.0457       1.0262
   20      -0.0013       -0.7359       0.7347        -1.0643       1.0630
   30      -0.2545       -1.1437       0.8892        -0.8974       0.6430
 Sum       28.7578       -0.3070      29.0648        -3.7661      32.5238

 Contributions to Isotropic shielding for atom   17 (    32.5209 ppm):
                         Standard Origin              Atomic Origin
 NLMO      Total    Paramagnetic  Diamagnetic   Paramagnetic  Diamagnetic
   12       1.3572        0.3290       1.0282         0.4696       0.8876
   13       1.0208        1.3428      -0.3220        -0.0921       1.1130
   14      26.3293       -0.0014      26.3307         0.4331      25.8962
   15       2.0782        1.3239       0.7543         0.3145       1.7637
   18       0.0566       -0.6270       0.6836        -1.0746       1.1312
   23       0.0279       -0.6811       0.7090        -1.0219       1.0498
   27      -0.3847       -1.7132       1.3285        -1.0689       0.6842
 Sum       30.4853       -0.0270      30.5123        -2.0404      32.5257

 Contributions to Isotropic shielding for atom   18 (    33.2369 ppm):
                         Standard Origin              Atomic Origin
 NLMO      Total    Paramagnetic  Diamagnetic   Paramagnetic  Diamagnetic
   12       1.3409        0.0430       1.2979         0.4035       0.9374
   13       1.1638        1.1095       0.0543         0.2530       0.9108
   14       2.0673        1.4810       0.5862         0.3078       1.7594
   15      26.6305        0.1299      26.5006         0.3924      26.2381
   19       0.0340       -0.7480       0.7820        -1.0502       1.0842
 Sum       31.2365        2.0154      29.2210         0.3065      30.9300

 Contributions to Isotropic shielding for atom   19 (    32.8565 ppm):
                         Standard Origin              Atomic Origin
 NLMO      Total    Paramagnetic  Diamagnetic   Paramagnetic  Diamagnetic
    3      -0.4171       -1.0410       0.6239        -0.6431       0.2260
    8       1.4392        0.6595       0.7797         0.5011       0.9381
   11       0.0493       -0.6069       0.6563        -1.0718       1.1211
   12       1.1615        0.6887       0.4728         0.1601       1.0014
   16       1.0520        1.0622      -0.0101        -0.0444       1.0964
   17      26.4882        0.0648      26.4234         0.3868      26.1014
   26      -0.0817       -1.2819       1.2002        -0.9619       0.8802
   29      -0.0777       -1.2057       1.1280        -0.9723       0.8946
 Sum       29.6138       -1.6602      31.2741        -2.6454      32.2593

 Contributions to Isotropic shielding for atom   20 (    32.6256 ppm):
                         Standard Origin              Atomic Origin
 NLMO      Total    Paramagnetic  Diamagnetic   Paramagnetic  Diamagnetic
    1      -0.1772       -0.3808       0.2036        -1.3442       1.1670
    2      -0.0417       -1.0470       1.0054        -0.9909       0.9492
    5       1.1440        0.8619       0.2821         0.2133       0.9307
   13       1.3830        0.2159       1.1671         0.3720       1.0111
   14      -0.0339       -0.0715       0.0376        -1.1270       1.0931
   18      26.4232        0.0463      26.3769         0.4770      25.9462
   19       1.9985        2.0878      -0.0893         0.2159       1.7826
 Sum       30.6959        1.7126      28.9834        -2.1838      32.8798

 Contributions to Isotropic shielding for atom   21 (    32.2150 ppm):
                         Standard Origin              Atomic Origin
 NLMO      Total    Paramagnetic  Diamagnetic   Paramagnetic  Diamagnetic
    5       1.0084        1.2486      -0.2402        -0.0300       1.0384
    7      -0.0944       -0.4738       0.3794        -1.1985       1.1041
   13       1.1994        0.6852       0.5142         0.0717       1.1277
   15       0.0103        0.1302      -0.1199        -1.0923       1.1027
   18       1.9824        1.8714       0.1109         0.1825       1.7999
   19      26.4742       -0.1435      26.6177         0.4644      26.0098
 Sum       30.5804        3.3182      27.2622        -1.6022      32.1826

 Contributions to Isotropic shielding for atom   22 (    31.9508 ppm):
                         Standard Origin              Atomic Origin
 NLMO      Total    Paramagnetic  Diamagnetic   Paramagnetic  Diamagnetic
    4      -0.1077       -1.0825       0.9748        -0.9904       0.8826
    6       0.9433        1.2496      -0.3063         0.0518       0.8915
    9       1.2623        0.4597       0.8026         0.2896       0.9727
   10      -0.0318        0.2527      -0.2845        -1.2105       1.1787
   11      -0.0493        0.0087      -0.0580        -1.1900       1.1407
   20      26.2636       -0.0294      26.2930         0.4678      25.7958
   21       1.9528        1.6713       0.2815         0.1216       1.8312
 Sum       30.2332        2.5300      27.7031        -2.4602      32.6933

 Contributions to Isotropic shielding for atom   23 (    32.8278 ppm):
                         Standard Origin              Atomic Origin
 NLMO      Total    Paramagnetic  Diamagnetic   Paramagnetic  Diamagnetic
    6       1.0762        0.7755       0.3007         0.0923       0.9839
    9       1.4980        0.1335       1.3646         0.6546       0.8435
   10      -0.2316        0.0528      -0.2845        -1.6342       1.4026
   20       1.9534        1.8568       0.0965         0.0889       1.8644
   21      26.4920        0.1133      26.3788         0.4488      26.0433
 Sum       30.7880        2.9319      27.8560        -0.3496      31.1376

 Contributions to Isotropic shielding for atom   24 (    35.1938 ppm):
                         Standard Origin              Atomic Origin
 NLMO      Total    Paramagnetic  Diamagnetic   Paramagnetic  Diamagnetic
    9      -0.0933        0.2250      -0.3183        -1.0075       0.9143
   10       2.0551        1.1262       0.9289         1.4315       0.6236
   16      -0.0632       -0.0711       0.0079        -1.0058       0.9427
   21      -0.1696       -0.8672       0.6976        -1.0554       0.8858
   22      22.9619       -0.3344      23.2963        -0.2545      23.2164
   43       3.7329        1.6720       2.0609         1.7921       1.9408
   44       5.3794        2.3608       3.0186         2.2445       3.1350
 Sum       33.8033        4.1113      29.6919         2.1447      31.6585

 Contributions to Isotropic shielding for atom   25 (    32.6279 ppm):
                         Standard Origin              Atomic Origin
 NLMO      Total    Paramagnetic  Diamagnetic   Paramagnetic  Diamagnetic
   10      -0.0002       -0.3717       0.3715        -1.1151       1.1149
   16       1.5781       -0.2731       1.8512         0.6666       0.9114
   22      -0.1224       -0.5641       0.4417        -1.0291       0.9067
   23       0.8791        1.7159      -0.8368        -0.1382       1.0173
   24       1.0293        1.5515      -0.5222         0.0488       0.9805
   25      26.4644        0.0427      26.4217         0.4084      26.0560
 Sum       29.8282        2.1011      27.7271        -1.1586      30.9868

 Contributions to Isotropic shielding for atom   26 (    32.7002 ppm):
                         Standard Origin              Atomic Origin
 NLMO      Total    Paramagnetic  Diamagnetic   Paramagnetic  Diamagnetic
   23       1.5634       -0.9320       2.4953         0.6164       0.9470
   26      26.3414        0.3074      26.0341         0.4158      25.9257
   27       2.0613        0.8496       1.2117         0.2755       1.7859
   28       1.9134        2.1017      -0.1883         0.0942       1.8192
 Sum       31.8796        2.3268      29.5528         1.4018      30.4777

 Contributions to Isotropic shielding for atom   27 (    32.4849 ppm):
                         Standard Origin              Atomic Origin
 NLMO      Total    Paramagnetic  Diamagnetic   Paramagnetic  Diamagnetic
   12      -0.0798        0.2008      -0.2806        -1.0934       1.0136
   23       1.4801       -0.8791       2.3592         0.4652       1.0148
   26       2.0406        0.7327       1.3079         0.2108       1.8298
   27      26.3658        0.2080      26.1578         0.3985      25.9673
   28       1.8506        2.1040      -0.2534        -0.0541       1.9046
 Sum       31.6572        2.3663      29.2909        -0.0729      31.7302

 Contributions to Isotropic shielding for atom   28 (    32.4991 ppm):
                         Standard Origin              Atomic Origin
 NLMO      Total    Paramagnetic  Diamagnetic   Paramagnetic  Diamagnetic
   23       1.2687        0.3264       0.9423         0.2732       0.9955
   24      -0.2247        0.7560      -0.9807        -1.3078       1.0831
   26       1.9440        1.6929       0.2511         0.0936       1.8504
   27       1.9639        1.8948       0.0691         0.0870       1.8768
   28      26.3170       -0.0081      26.3251         0.4527      25.8643
   31      -0.1235       -0.8396       0.7161        -1.0073       0.8838
 Sum       31.1454        3.8225      27.3229        -1.4086      32.5540

 Contributions to Isotropic shielding for atom   29 (    32.6366 ppm):
                         Standard Origin              Atomic Origin
 NLMO      Total    Paramagnetic  Diamagnetic   Paramagnetic  Diamagnetic
   24       1.5213       -0.6286       2.1499         0.5901       0.9313
   29      26.4062        0.2746      26.1316         0.3991      26.0071
   30       2.0753        0.5819       1.4934         0.2300       1.8453
   31       1.9095        2.1267      -0.2171         0.0972       1.8124
 Sum       31.9124        2.3546      29.5579         1.3164      30.5960

 Contributions to Isotropic shielding for atom   30 (    31.8650 ppm):
                         Standard Origin              Atomic Origin
 NLMO      Total    Paramagnetic  Diamagnetic   Paramagnetic  Diamagnetic
    8      -0.0956        0.0972      -0.1927        -1.1058       1.0102
   10       0.0383       -0.1679       0.2062        -1.3519       1.3902
   24       1.4969       -0.9163       2.4132         0.5170       0.9799
   29       2.0225        0.5722       1.4503         0.1787       1.8438
   30      26.0702        0.3017      25.7685         0.4123      25.6578
   31       1.8324        1.8554      -0.0230        -0.0516       1.8840
   43      -0.3697        0.0983      -0.4680         0.6988      -1.0685
 Sum       30.9950        1.8406      29.1544        -0.7025      31.6975

 Contributions to Isotropic shielding for atom   31 (    32.4671 ppm):
                         Standard Origin              Atomic Origin
 NLMO      Total    Paramagnetic  Diamagnetic   Paramagnetic  Diamagnetic
   23      -0.1935        0.6511      -0.8446        -1.2324       1.0390
   24       1.1779        0.5833       0.5946         0.1886       0.9893
   28      -0.1483       -1.1272       0.9790        -1.0090       0.8608
   29       1.9568        1.7689       0.1879         0.1197       1.8371
   30       2.0197        1.6285       0.3912         0.1213       1.8984
   31      26.3976        0.0098      26.3878         0.4600      25.9376
 Sum       31.2102        3.5143      27.6959        -1.3519      32.5621
 
 1\1\GINC-COMPUTE-10-7\SP\RHF\STO-3G\C10H20O1\YTSAI.IQUIR\24-May-2020\0
 \\# rhf/STO-3G nmr pop=nbo\\comment\\0,1\C,0,1.110297316,-0.712799358,
 -2.704775179\C,0,0.025705347,-1.46568961,-1.929178939\C,0,0.846825729,
 -0.915372161,0.441688333\C,0,-1.411775218,-0.067722971,-0.292771775\C,
 0,-0.069665965,0.336802425,0.339766845\C,0,-1.234040859,-0.608993448,-
 1.71887891\C,0,0.549609545,-2.004093309,-0.599988719\O,0,0.759210765,-
 1.531567798,1.727542416\C,0,-0.222448012,1.112550538,1.683149623\C,0,-
 1.129141096,2.343946095,1.554736428\C,0,1.14083855,1.575560056,2.21811
 5399\H,0,0.737173738,-0.408411504,-3.688658085\H,0,1.448862846,0.18679
 4092,-2.184008342\H,0,1.9829757,-1.354526849,-2.867041006\H,0,-0.25569
 9351,-2.324370765,-2.553428138\H,0,1.886998471,-0.588533404,0.32616277
 3\H,0,-2.104548203,0.777073097,-0.350942357\H,0,-1.899109609,-0.826451
 034,0.33270567\H,0,0.40343106,1.029967341,-0.369942626\H,0,-1.24180495
 4,0.229060134,-2.42714002\H,0,-2.120671806,-1.208874713,-1.961465536\H
 ,0,1.452958993,-2.607520375,-0.757092382\H,0,-0.190056804,-2.709328033
 ,-0.195573812\H,0,-0.166256285,-1.79395598,1.86992375\H,0,-0.677816315
 ,0.453270697,2.432630878\H,0,-0.806144101,2.991126841,0.732471382\H,0,
 -2.170880691,2.058156606,1.382744708\H,0,-1.115886488,2.936994086,2.47
 6007918\H,0,1.64509263,2.228613793,1.497507056\H,0,1.804372635,0.73351
 5529,2.433055946\H,0,1.021592434,2.134779981,3.152676699\\Version=EM64
 L-G09RevC.01\State=1-A\HF=-459.6091961\RMSD=9.277e-09\Dipole=-0.441286
 6,0.0715672,-0.3799097\Quadrupole=0.2717224,0.593109,-0.8648314,1.6686
 688,-2.2155492,0.8286461\PG=C01 [X(C10H20O1)]\\@


 ONE THORN OF EXPERIENCE IS WORTH A WHOLE WILDERNESS OF
 WARNING....  LOWELL - AMONG MY BOOKS
 Job cpu time:  0 days  0 hours  0 minutes 40.9 seconds.
 File lengths (MBytes):  RWF=      5 Int=      0 D2E=      0 Chk=      1 Scr=      1
 Normal termination of Gaussian 09 at Sun May 24 02:10:40 2020.
