 Entering Gaussian System, Link 0=g09
 Input=/home/ytsai.iquir/menthol/04_menthol_M0019_MMFF_NMR_rhf_STO-3G_nbo.gjc
 Output=/home/ytsai.iquir/menthol/04_menthol_M0019_MMFF_NMR_rhf_STO-3G_nbo.log
 Initial command:
 /share/apps/Gaussian09/EM64T.SSE4.2-enabled/g09/l1.exe /tmp/Gau-11246.inp -scrdir=/tmp/
 Entering Link 1 = /share/apps/Gaussian09/EM64T.SSE4.2-enabled/g09/l1.exe PID=     11247.
  
 Copyright (c) 1988,1990,1992,1993,1995,1998,2003,2009,2011,
            Gaussian, Inc.  All Rights Reserved.
  
 This is part of the Gaussian(R) 09 program.  It is based on
 the Gaussian(R) 03 system (copyright 2003, Gaussian, Inc.),
 the Gaussian(R) 98 system (copyright 1998, Gaussian, Inc.),
 the Gaussian(R) 94 system (copyright 1995, Gaussian, Inc.),
 the Gaussian 92(TM) system (copyright 1992, Gaussian, Inc.),
 the Gaussian 90(TM) system (copyright 1990, Gaussian, Inc.),
 the Gaussian 88(TM) system (copyright 1988, Gaussian, Inc.),
 the Gaussian 86(TM) system (copyright 1986, Carnegie Mellon
 University), and the Gaussian 82(TM) system (copyright 1983,
 Carnegie Mellon University). Gaussian is a federally registered
 trademark of Gaussian, Inc.
  
 This software contains proprietary and confidential information,
 including trade secrets, belonging to Gaussian, Inc.
  
 This software is provided under written license and may be
 used, copied, transmitted, or stored only in accord with that
 written license.
  
 The following legend is applicable only to US Government
 contracts under FAR:
  
                    RESTRICTED RIGHTS LEGEND
  
 Use, reproduction and disclosure by the US Government is
 subject to restrictions as set forth in subparagraphs (a)
 and (c) of the Commercial Computer Software - Restricted
 Rights clause in FAR 52.227-19.
  
 Gaussian, Inc.
 340 Quinnipiac St., Bldg. 40, Wallingford CT 06492
  
  
 ---------------------------------------------------------------
 Warning -- This program may not be used in any manner that
 competes with the business of Gaussian, Inc. or will provide
 assistance to any competitor of Gaussian, Inc.  The licensee
 of this program is prohibited from giving any competitor of
 Gaussian, Inc. access to this program.  By using this program,
 the user acknowledges that Gaussian, Inc. is engaged in the
 business of creating and licensing software in the field of
 computational chemistry and represents and warrants to the
 licensee that it is not a competitor of Gaussian, Inc. and that
 it will not use this program in any manner prohibited above.
 ---------------------------------------------------------------
  

 Cite this work as:
 Gaussian 09, Revision C.01,
 M. J. Frisch, G. W. Trucks, H. B. Schlegel, G. E. Scuseria, 
 M. A. Robb, J. R. Cheeseman, G. Scalmani, V. Barone, B. Mennucci, 
 G. A. Petersson, H. Nakatsuji, M. Caricato, X. Li, H. P. Hratchian, 
 A. F. Izmaylov, J. Bloino, G. Zheng, J. L. Sonnenberg, M. Hada, 
 M. Ehara, K. Toyota, R. Fukuda, J. Hasegawa, M. Ishida, T. Nakajima, 
 Y. Honda, O. Kitao, H. Nakai, T. Vreven, J. A. Montgomery, Jr., 
 J. E. Peralta, F. Ogliaro, M. Bearpark, J. J. Heyd, E. Brothers, 
 K. N. Kudin, V. N. Staroverov, T. Keith, R. Kobayashi, J. Normand, 
 K. Raghavachari, A. Rendell, J. C. Burant, S. S. Iyengar, J. Tomasi, 
 M. Cossi, N. Rega, J. M. Millam, M. Klene, J. E. Knox, J. B. Cross, 
 V. Bakken, C. Adamo, J. Jaramillo, R. Gomperts, R. E. Stratmann, 
 O. Yazyev, A. J. Austin, R. Cammi, C. Pomelli, J. W. Ochterski, 
 R. L. Martin, K. Morokuma, V. G. Zakrzewski, G. A. Voth, 
 P. Salvador, J. J. Dannenberg, S. Dapprich, A. D. Daniels, 
 O. Farkas, J. B. Foresman, J. V. Ortiz, J. Cioslowski, 
 and D. J. Fox, Gaussian, Inc., Wallingford CT, 2010.
 
 ******************************************
 Gaussian 09:  EM64L-G09RevC.01 23-Sep-2011
                 3-Aug-2021 
 ******************************************
 %nprocshared=4
 Will use up to    4 processors via shared memory.
 ------------------------
 # rhf/STO-3G nmr pop=nbo
 ------------------------
 1/38=1/1;
 2/12=2,17=6,18=5,40=1/2;
 3/6=3,11=1,16=1,25=1,30=1,116=1/1,2,8,3;
 4//1;
 5/5=2,38=5/2;
 8/6=1,10=90,11=11/1;
 10/13=100,45=16/2;
 6/7=2,8=2,9=2,10=2,28=1,64=1/1,7;
 99/9=1/99;
 -------
 comment
 -------
 Charge =  0 Multiplicity = 1
 Symbolic Z-Matrix:
 6                    -0.59636  -2.29391  -2.82035 
 6                    -0.44069  -1.63289  -1.45103 
 6                     1.25311  -0.64131   0.18718 
 6                    -1.05779   0.39548  -0.05369 
 6                     0.42865   0.66619   0.24273 
 6                    -1.23996  -0.32594  -1.38971 
 6                     1.04323  -1.38424  -1.13785 
 8                     0.95547  -1.51862   1.26707 
 6                     0.66925   1.48405   1.5464 
 6                    -0.08542   0.98732   2.78298 
 6                     0.33091   2.96566   1.32591 
 1                    -0.20993  -1.65228  -3.61952 
 1                    -0.05332  -3.24419  -2.8564 
 1                    -1.65023  -2.50203  -3.03316 
 1                    -0.84907  -2.32425  -0.70288 
 1                     2.31759  -0.39518   0.27664 
 1                    -1.61585   1.33761  -0.08785 
 1                    -1.50931  -0.21198   0.73878 
 1                     0.80681   1.283    -0.58669 
 1                    -0.92856   0.34117  -2.20387 
 1                    -2.30573  -0.53407  -1.54315 
 1                     1.49436  -0.79842  -1.94904 
 1                     1.56591  -2.34824  -1.10278 
 1                     0.0119   -1.74493   1.23428 
 1                     1.74265   1.43921   1.77433 
 1                    -1.16985   1.06816   2.65787 
 1                     0.15649  -0.0493    3.02527 
 1                     0.18475   1.58912   3.65838 
 1                    -0.73661   3.11455   1.13567 
 1                     0.88947   3.37247   0.47638 
 1                     0.59816   3.55778   2.2081 
 
                          Input orientation:                          
 ---------------------------------------------------------------------
 Center     Atomic      Atomic             Coordinates (Angstroms)
 Number     Number       Type             X           Y           Z
 ---------------------------------------------------------------------
      1          6           0       -0.596356   -2.293909   -2.820354
      2          6           0       -0.440690   -1.632891   -1.451027
      3          6           0        1.253115   -0.641312    0.187182
      4          6           0       -1.057793    0.395477   -0.053688
      5          6           0        0.428652    0.666189    0.242734
      6          6           0       -1.239963   -0.325940   -1.389713
      7          6           0        1.043226   -1.384236   -1.137848
      8          8           0        0.955466   -1.518623    1.267066
      9          6           0        0.669250    1.484051    1.546403
     10          6           0       -0.085425    0.987319    2.782975
     11          6           0        0.330907    2.965663    1.325913
     12          1           0       -0.209932   -1.652282   -3.619523
     13          1           0       -0.053323   -3.244187   -2.856404
     14          1           0       -1.650232   -2.502027   -3.033158
     15          1           0       -0.849072   -2.324251   -0.702875
     16          1           0        2.317592   -0.395184    0.276639
     17          1           0       -1.615854    1.337607   -0.087846
     18          1           0       -1.509312   -0.211981    0.738779
     19          1           0        0.806807    1.283003   -0.586687
     20          1           0       -0.928561    0.341170   -2.203868
     21          1           0       -2.305734   -0.534070   -1.543151
     22          1           0        1.494357   -0.798416   -1.949041
     23          1           0        1.565910   -2.348238   -1.102784
     24          1           0        0.011900   -1.744934    1.234284
     25          1           0        1.742646    1.439211    1.774326
     26          1           0       -1.169853    1.068163    2.657868
     27          1           0        0.156494   -0.049304    3.025272
     28          1           0        0.184752    1.589122    3.658377
     29          1           0       -0.736610    3.114555    1.135675
     30          1           0        0.889475    3.372474    0.476378
     31          1           0        0.598163    3.557780    2.208097
 ---------------------------------------------------------------------
                    Distance matrix (angstroms):
                    1          2          3          4          5
     1  C    0.000000
     2  C    1.528474   0.000000
     3  C    3.898319   2.556547   0.000000
     4  C    3.885893   2.539222   2.544257   0.000000
     5  C    4.381247   2.985021   1.546733   1.539698   0.000000
     6  C    2.516717   1.533205   2.966731   1.529245   2.536430
     7  C    2.519238   1.536853   1.533524   2.959233   2.547145
     8  O    4.440295   3.057832   1.422821   3.075937   2.469857
     9  C    5.911286   4.464514   2.589507   2.593831   1.557671
    10  C    6.513433   4.991842   3.343990   3.056540   2.611556
    11  C    6.761245   5.427103   3.893256   3.230733   2.543700
    12  H    1.095299   2.180826   4.201615   4.198495   4.549739
    13  H    1.095086   2.172882   4.212500   4.702269   5.012784
    14  H    1.095104   2.172908   4.718292   4.198066   5.009074
    15  H    2.132721   1.097490   2.836137   2.803913   3.386663
    16  H    4.656996   3.482078   1.096217   3.482453   2.166968
    17  H    4.657669   3.473202   3.496104   1.095540   2.177175
    18  H    4.223190   2.820671   2.849489   1.095846   2.184708
    19  H    4.444371   3.287213   2.121569   2.132727   1.100636
    20  H    2.726546   2.168341   3.382618   2.154745   2.816652
    21  H    2.765909   2.166629   3.958657   2.154047   3.479494
    22  H    2.714179   2.165358   2.155535   3.395764   2.843356
    23  H    2.761955   2.158573   2.162279   3.938578   3.491496
    24  H    4.136598   2.725488   1.963420   2.717439   2.640145
    25  H    6.365391   4.960612   2.662187   3.503352   2.160999
    26  H    6.453165   4.970954   3.859710   2.795996   2.923982
    27  H    6.306851   4.785564   3.099646   3.339508   2.885917
    28  H    7.593551   6.072772   4.262092   4.092448   3.546535
    29  H    6.702336   5.414502   4.354903   2.985151   2.854764
    30  H    6.721906   5.526111   4.040587   3.596572   2.755163
    31  H    7.807333   6.435174   4.705893   4.225875   3.500384
                    6          7          8          9         10
     6  C    0.000000
     7  C    2.529106   0.000000
     8  O    3.647037   2.410264   0.000000
     9  C    3.942326   3.946154   3.029192   0.000000
    10  C    4.524260   4.719214   3.108244   1.531466   0.000000
    11  C    4.547186   5.049667   4.527953   1.535664   2.492029
    12  H    2.791451   2.793020   5.025413   6.107072   6.926397
    13  H    3.474977   2.759579   4.582383   6.501005   7.050481
    14  H    2.757642   3.477984   5.123346   6.499323   6.960716
    15  H    2.148904   2.157225   2.790352   4.676293   4.868347
    16  H    3.929086   2.145461   2.024462   2.803722   3.737316
    17  H    2.145586   3.947358   4.074988   2.813168   3.272083
    18  H    2.148490   3.378071   2.839285   2.876616   2.764872
    19  H    2.724484   2.733832   3.362680   2.146955   3.498304
    20  H    1.097659   2.828669   4.365292   4.233641   5.098725
    21  H    1.096691   3.478877   4.416118   4.740115   5.095073
    22  H    2.830651   1.097606   3.339528   4.255418   5.298730
    23  H    3.470582   1.097146   2.584007   4.744326   5.380704
    24  H    3.235130   2.611656   0.970880   3.309965   3.142152
    25  H    4.692851   4.116042   3.102539   1.098243   2.136217
    26  H    4.281512   5.031842   3.625296   2.188748   1.094610
    27  H    4.638826   4.460931   2.426632   2.191153   1.091706
    28  H    5.583949   5.708030   3.996304   2.169381   1.096125
    29  H    4.297435   5.345637   4.934240   2.191730   2.768171
    30  H    4.657795   5.025500   4.955035   2.181649   3.458292
    31  H    5.604125   5.984726   5.175237   2.177899   2.721222
                   11         12         13         14         15
    11  C    0.000000
    12  H    6.787875   0.000000
    13  H    7.496776   1.772298   0.000000
    14  H    7.267877   1.772105   1.769791   0.000000
    15  H    5.787185   3.060535   2.473294   2.470562   0.000000
    16  H    4.042670   4.811314   4.853248   5.580069   3.835167
    17  H    2.905022   4.836196   5.576671   4.839301   3.791493
    18  H    3.718676   4.770497   4.923365   4.414938   2.641206
    19  H    2.591498   4.341399   5.136817   5.133100   3.970858
    20  H    4.575323   2.548402   3.747883   3.048327   3.060027
    21  H    5.237512   3.155012   3.760681   2.553949   2.456150
    22  H    5.123205   2.534600   3.033219   3.737117   3.061496
    23  H    5.971712   3.157839   2.549476   3.754140   2.447987
    24  H    4.722275   4.859757   4.357264   4.641868   2.197605
    25  H    2.127002   6.516402   6.826667   7.082152   5.197804
    26  H    2.761682   6.908538   7.088737   6.735339   4.786018
    27  H    3.465295   6.845225   6.696672   6.781200   4.481699
    28  H    2.712309   7.976860   8.115413   8.054893   5.950109
    29  H    1.094509   6.753667   7.539043   7.054067   5.742257
    30  H    1.095081   6.575200   7.468367   7.299090   6.071725
    31  H    1.095572   7.858684   8.505314   8.321496   6.720605
                   16         17         18         19         20
    16  H    0.000000
    17  H    4.313630   0.000000
    18  H    3.859058   1.759512   0.000000
    19  H    2.417460   2.474087   3.058798   0.000000
    20  H    4.151221   2.437788   3.049986   2.552220   0.000000
    21  H    4.970520   2.469216   2.438285   3.728873   1.760454
    22  H    2.407065   4.207143   4.073120   2.580899   2.689633
    23  H    2.506442   4.973849   4.172762   3.745465   3.829841
    24  H    2.838155   3.728226   2.215752   3.621632   4.130035
    25  H    2.436931   3.841553   3.791309   2.544520   4.916002
    26  H    4.469217   2.794720   2.331717   3.805322   4.921709
    27  H    3.513539   3.841386   2.833624   3.904382   5.354785
    28  H    4.463477   4.164088   3.825949   4.301306   6.096128
    29  H    4.731211   2.329725   3.438086   2.950127   4.345234
    30  H    4.034186   3.276538   4.321035   2.345811   4.435964
    31  H    4.723652   3.886180   4.561956   3.609565   5.669471
                   21         22         23         24         25
    21  H    0.000000
    22  H    3.830838   0.000000
    23  H    4.298227   1.767263   0.000000
    24  H    3.814678   3.636913   2.870682   0.000000
    25  H    5.593646   4.351102   4.759597   3.664137   0.000000
    26  H    4.637449   5.639658   5.770502   3.366993   3.066100
    27  H    5.212298   5.205270   4.930760   2.470567   2.509267
    28  H    6.145435   6.233662   6.330802   4.125776   2.449317
    29  H    4.790692   5.459306   6.336750   4.917786   3.059634
    30  H    5.435894   4.862598   5.973094   5.247134   2.479935
    31  H    6.264800   6.087808   6.839555   5.423171   2.446699
                   26         27         28         29         30
    26  H    0.000000
    27  H    1.772827   0.000000
    28  H    1.762774   1.756719   0.000000
    29  H    2.586985   3.791862   3.088670   0.000000
    30  H    3.782800   4.329282   3.715118   1.773512   0.000000
    31  H    3.086481   3.724769   2.479887   1.768659   1.765801
                   31
    31  H    0.000000
 Stoichiometry    C10H20O
 Framework group  C1[X(C10H20O)]
 Deg. of freedom    87
 Full point group                 C1      NOp   1
 Largest Abelian subgroup         C1      NOp   1
 Largest concise Abelian subgroup C1      NOp   1
                         Standard orientation:                         
 ---------------------------------------------------------------------
 Center     Atomic      Atomic             Coordinates (Angstroms)
 Number     Number       Type             X           Y           Z
 ---------------------------------------------------------------------
      1          6           0        3.651194   -0.449051   -0.005276
      2          6           0        2.190004   -0.102070    0.278914
      3          6           0        0.132125    1.101764   -0.644043
      4          6           0       -0.127230   -1.068799    0.657740
      5          6           0       -0.697508   -0.192312   -0.472404
      6          6           0        1.353644   -1.377707    0.433737
      7          6           0        1.622747    0.794899   -0.832654
      8          8           0       -0.025699    1.998392    0.449378
      9          6           0       -2.226821    0.075724   -0.347121
     10          6           0       -2.703303    0.532483    1.034807
     11          6           0       -3.029510   -1.167264   -0.758139
     12          1           0        3.753976   -1.006997   -0.942192
     13          1           0        4.257500    0.459490   -0.083752
     14          1           0        4.068386   -1.061599    0.800944
     15          1           0        2.160507    0.448905    1.227619
     16          1           0       -0.222270    1.636749   -1.532798
     17          1           0       -0.675217   -2.015569    0.717272
     18          1           0       -0.240736   -0.575072    1.629454
     19          1           0       -0.554981   -0.754445   -1.407868
     20          1           0        1.458751   -2.004479   -0.461229
     21          1           0        1.729033   -1.968525    1.277981
     22          1           0        1.764557    0.305392   -1.804771
     23          1           0        2.188952    1.734376   -0.855503
     24          1           0        0.260111    1.551959    1.262777
     25          1           0       -2.486169    0.866302   -1.063964
     26          1           0       -2.541827   -0.237272    1.796106
     27          1           0       -2.206330    1.448216    1.360801
     28          1           0       -3.778346    0.745341    1.013247
     29          1           0       -2.868634   -2.001230   -0.067798
     30          1           0       -2.751129   -1.497884   -1.764319
     31          1           0       -4.102599   -0.946792   -0.770398
 ---------------------------------------------------------------------
 Rotational constants (GHZ):      1.9621457      0.6779287      0.5965355
 Standard basis: STO-3G (5D, 7F)
 There are    75 symmetry adapted basis functions of A   symmetry.
 Integral buffers will be    131072 words long.
 Raffenetti 1 integral format.
 Two-electron integral symmetry is turned on.
    75 basis functions,   225 primitive gaussians,    75 cartesian basis functions
    44 alpha electrons       44 beta electrons
       nuclear repulsion energy       694.8784323698 Hartrees.
 NAtoms=   31 NActive=   31 NUniq=   31 SFac= 1.00D+00 NAtFMM=   60 NAOKFM=F Big=F
 One-electron integrals computed using PRISM.
 NBasis=    75 RedAO= T  NBF=    75
 NBsUse=    75 1.00D-06 NBFU=    75
 Harris functional with IExCor=  205 diagonalized for initial guess.
 ExpMin= 1.69D-01 ExpMax= 1.31D+02 ExpMxC= 1.31D+02 IAcc=1 IRadAn=         1 AccDes= 0.00D+00
 HarFok:  IExCor=  205 AccDes= 0.00D+00 IRadAn=         1 IDoV= 1
 ScaDFX=  1.000000  1.000000  1.000000  1.000000
 FoFCou: FMM=F IPFlag=           0 FMFlag=      100000 FMFlg1=           0
         NFxFlg=           0 DoJE=T BraDBF=F KetDBF=T FulRan=T
         Omega=  0.000000  0.000000  1.000000  0.000000  0.000000 ICntrl=     500 IOpCl=  0
         NMat0=    1 NMatS0=    1 NMatT0=    0 NMatD0=    1 NMtDS0=    0 NMtDT0=    0
         I1Cent=           4 NGrid=           0.
 Petite list used in FoFCou.
 Initial guess orbital symmetries:
       Occupied  (A) (A) (A) (A) (A) (A) (A) (A) (A) (A) (A) (A)
                 (A) (A) (A) (A) (A) (A) (A) (A) (A) (A) (A) (A)
                 (A) (A) (A) (A) (A) (A) (A) (A) (A) (A) (A) (A)
                 (A) (A) (A) (A) (A) (A) (A) (A)
       Virtual   (A) (A) (A) (A) (A) (A) (A) (A) (A) (A) (A) (A)
                 (A) (A) (A) (A) (A) (A) (A) (A) (A) (A) (A) (A)
                 (A) (A) (A) (A) (A) (A) (A)
 The electronic state of the initial guess is 1-A.
 Requested convergence on RMS density matrix=1.00D-08 within 128 cycles.
 Requested convergence on MAX density matrix=1.00D-06.
 Requested convergence on             energy=1.00D-06.
 No special actions if energy rises.
 Keep R1 ints in memory in canonical form, NReq=4898789.
 SCF Done:  E(RHF) =  -459.620842608     A.U. after   10 cycles
             Convg  =    0.8983D-08             -V/T =  2.0089
 Range of M.O.s used for correlation:     1    75
 NBasis=    75 NAE=    44 NBE=    44 NFC=     0 NFV=     0
 NROrb=     75 NOA=    44 NOB=    44 NVA=    31 NVB=    31
          Differentiating once with respect to magnetic field using GIAOs.
          Electric field/nuclear overlap derivatives assumed to be zero.
          Keep R3 ints in memory in canonical form, NReq=4863575.
 FoFCou: FMM=F IPFlag=           0 FMFlag=           0 FMFlg1=           0
         NFxFlg=           0 DoJE=F BraDBF=F KetDBF=T FulRan=T
         Omega=  0.000000  0.000000  1.000000  0.000000  0.000000 ICntrl=    6100 IOpCl=  0
         NMat0=    1 NMatS0=    1 NMatT0=    0 NMatD0=    1 NMtDS0=    0 NMtDT0=    0
         I1Cent=           7 NGrid=          31.
 Symmetry not used in FoFCou.
          There are     3 degrees of freedom in the 1st order CPHF.  IDoFFX=0.
      3 vectors produced by pass  0 Test12= 4.55D-14 3.33D-08 XBig12= 7.29D+00 4.47D-01.
 AX will form     3 AO Fock derivatives at one time.
      3 vectors produced by pass  1 Test12= 4.55D-14 3.33D-08 XBig12= 1.06D-02 1.44D-02.
      3 vectors produced by pass  2 Test12= 4.55D-14 3.33D-08 XBig12= 5.53D-05 2.53D-03.
      3 vectors produced by pass  3 Test12= 4.55D-14 3.33D-08 XBig12= 1.55D-06 3.02D-04.
      3 vectors produced by pass  4 Test12= 4.55D-14 3.33D-08 XBig12= 2.03D-08 2.80D-05.
      3 vectors produced by pass  5 Test12= 4.55D-14 3.33D-08 XBig12= 3.49D-10 3.81D-06.
      3 vectors produced by pass  6 Test12= 4.55D-14 3.33D-08 XBig12= 4.74D-12 4.62D-07.
      1 vectors produced by pass  7 Test12= 4.55D-14 3.33D-08 XBig12= 6.23D-14 2.98D-08.
 Inverted reduced A of dimension    22 with in-core refinement.
 Calculating GIAO nuclear magnetic shielding tensors.
 SCF GIAO Magnetic shielding tensor (ppm):
      1  C    Isotropic =   221.1002   Anisotropy =    28.5447
   XX=   239.0322   YX=    -4.0584   ZX=    -1.0704
   XY=    -5.6906   YY=   212.4966   ZY=     0.0749
   XZ=    -4.0962   YZ=     0.0822   ZZ=   211.7717
   Eigenvalues:   211.2091   211.9614   240.1299
      2  C    Isotropic =   217.0922   Anisotropy =    10.4650
   XX=   222.6545   YX=     1.1998   ZX=    -0.3973
   XY=     3.0010   YY=   217.1898   ZY=    -3.3122
   XZ=    -3.6504   YZ=    -2.7808   ZZ=   211.4324
   Eigenvalues:   210.0298   217.1780   224.0689
      3  C    Isotropic =   188.4559   Anisotropy =    29.6763
   XX=   182.4025   YX=     0.9849   ZX=    -6.3477
   XY=     4.5316   YY=   188.9147   ZY=    17.4703
   XZ=    -1.6886   YZ=    15.5216   ZZ=   194.0505
   Eigenvalues:   172.5316   184.5959   208.2401
      4  C    Isotropic =   220.9600   Anisotropy =    16.0930
   XX=   230.7636   YX=    -2.2441   ZX=    -0.2896
   XY=    -4.9064   YY=   215.5544   ZY=    -4.9620
   XZ=     1.2909   YZ=    -2.9006   ZZ=   216.5621
   Eigenvalues:   211.7883   219.4032   231.6887
      5  C    Isotropic =   209.6684   Anisotropy =    17.5460
   XX=   221.3232   YX=     2.3310   ZX=     0.0605
   XY=    -3.0667   YY=   205.2944   ZY=     1.1948
   XZ=    -1.5968   YZ=     1.6931   ZZ=   202.3874
   Eigenvalues:   201.7754   205.8640   221.3657
      6  C    Isotropic =   215.9027   Anisotropy =    16.9384
   XX=   224.6991   YX=     2.3024   ZX=    -3.1317
   XY=     7.0623   YY=   216.0698   ZY=    -0.1375
   XZ=    -2.3315   YZ=    -2.3277   ZZ=   206.9391
   Eigenvalues:   206.4956   214.0175   227.1949
      7  C    Isotropic =   214.2481   Anisotropy =    17.2812
   XX=   221.9758   YX=    -6.2670   ZX=    -3.3910
   XY=    -7.2116   YY=   212.1095   ZY=    -3.4538
   XZ=     4.0679   YZ=    -6.0749   ZZ=   208.6590
   Eigenvalues:   204.4320   212.5434   225.7689
      8  O    Isotropic =   367.1310   Anisotropy =    66.4225
   XX=   363.2730   YX=    -9.5298   ZX=    19.0655
   XY=   -14.2788   YY=   370.7494   ZY=   -48.1628
   XZ=    11.0826   YZ=   -21.4066   ZZ=   367.3706
   Eigenvalues:   333.9319   356.0485   411.4126
      9  C    Isotropic =   212.7270   Anisotropy =    17.7702
   XX=   224.5285   YX=    -0.2959   ZX=     2.2134
   XY=    -0.4375   YY=   206.9410   ZY=     2.4260
   XZ=    -0.4932   YZ=     1.9425   ZZ=   206.7116
   Eigenvalues:   204.6005   209.0068   224.5738
     10  C    Isotropic =   223.5793   Anisotropy =    21.5912
   XX=   221.5760   YX=    -3.1469   ZX=    -6.6768
   XY=    -1.1462   YY=   217.7572   ZY=     7.1977
   XZ=    -5.6465   YZ=     9.6058   ZZ=   231.4046
   Eigenvalues:   213.6726   219.0918   237.9734
     11  C    Isotropic =   220.2347   Anisotropy =    28.5385
   XX=   222.2697   YX=    10.5421   ZX=     4.5040
   XY=    12.9668   YY=   224.2049   ZY=    13.1383
   XZ=    -0.0418   YZ=     9.9492   ZZ=   214.2296
   Eigenvalues:   204.9859   216.4579   239.2604
     12  H    Isotropic =    32.7101   Anisotropy =    11.7697
   XX=    33.3691   YX=    -2.7875   ZX=    -3.7764
   XY=    -2.8951   YY=    30.2814   ZY=     4.6792
   XZ=    -3.7158   YZ=     4.6467   ZZ=    34.4797
   Eigenvalues:    27.2358    30.3379    40.5566
     13  H    Isotropic =    32.4476   Anisotropy =    13.9538
   XX=    38.0058   YX=     5.8770   ZX=    -0.5586
   XY=     5.4481   YY=    32.9979   ZY=    -0.7929
   XZ=    -0.5028   YZ=    -1.0057   ZZ=    26.3391
   Eigenvalues:    26.2130    29.3796    41.7501
     14  H    Isotropic =    32.4856   Anisotropy =    13.6926
   XX=    35.6582   YX=    -4.0644   ZX=     4.5903
   XY=    -4.0064   YY=    30.1390   ZY=    -4.6084
   XZ=     4.3880   YZ=    -4.4650   ZZ=    31.6595
   Eigenvalues:    26.2933    29.5495    41.6140
     15  H    Isotropic =    33.1511   Anisotropy =    10.1834
   XX=    32.3914   YX=     0.0673   ZX=     1.4131
   XY=    -0.3406   YY=    30.4632   ZY=     5.4449
   XZ=     1.7905   YZ=     5.2783   ZZ=    36.5987
   Eigenvalues:    27.1860    32.3272    39.9400
     16  H    Isotropic =    31.3611   Anisotropy =    11.6287
   XX=    29.9363   YX=    -0.9451   ZX=     1.8904
   XY=    -1.0681   YY=    30.0705   ZY=    -5.4948
   XZ=     2.4635   YZ=    -6.7371   ZZ=    34.0763
   Eigenvalues:    25.5834    29.3863    39.1135
     17  H    Isotropic =    32.5779   Anisotropy =    12.7099
   XX=    34.7984   YX=     4.2647   ZX=     0.0531
   XY=     4.3398   YY=    37.2846   ZY=    -3.6754
   XZ=     0.0867   YZ=    -3.4687   ZZ=    25.6507
   Eigenvalues:    24.4732    32.2092    41.0512
     18  H    Isotropic =    33.2007   Anisotropy =     9.2399
   XX=    32.7259   YX=    -2.0800   ZX=    -1.7511
   XY=    -1.5504   YY=    28.4227   ZY=     1.7303
   XZ=    -1.9782   YZ=     1.2496   ZZ=    38.4535
   Eigenvalues:    27.7008    32.5407    39.3607
     19  H    Isotropic =    32.8509   Anisotropy =     9.5600
   XX=    33.1128   YX=     0.5188   ZX=    -0.1903
   XY=     0.9359   YY=    29.3836   ZY=     5.6985
   XZ=     0.2365   YZ=     5.4134   ZZ=    36.0562
   Eigenvalues:    26.1833    33.1451    39.2242
     20  H    Isotropic =    32.8919   Anisotropy =    11.1668
   XX=    31.7353   YX=    -1.4107   ZX=    -1.6787
   XY=    -1.4689   YY=    35.6202   ZY=     5.8583
   XZ=    -1.5233   YZ=     6.0983   ZZ=    31.3203
   Eigenvalues:    27.0636    31.2758    40.3365
     21  H    Isotropic =    32.5240   Anisotropy =    13.7662
   XX=    32.1794   YX=    -2.6233   ZX=     2.7716
   XY=    -2.6360   YY=    33.0736   ZY=    -7.2598
   XZ=     2.8665   YZ=    -7.6201   ZZ=    32.3190
   Eigenvalues:    25.2378    30.6327    41.7015
     22  H    Isotropic =    32.7079   Anisotropy =    11.4992
   XX=    31.4240   YX=    -1.3887   ZX=    -3.0787
   XY=    -1.5629   YY=    27.6435   ZY=     1.8738
   XZ=    -2.8918   YZ=     1.1539   ZZ=    39.0560
   Eigenvalues:    27.1138    30.6358    40.3740
     23  H    Isotropic =    32.0616   Anisotropy =    13.7789
   XX=    33.4356   YX=     5.3437   ZX=    -1.7041
   XY=     4.7978   YY=    36.6144   ZY=    -3.5139
   XZ=    -1.3731   YZ=    -3.4040   ZZ=    26.1347
   Eigenvalues:    25.0959    29.8412    41.2475
     24  H    Isotropic =    34.9213   Anisotropy =    11.1565
   XX=    29.3541   YX=    -2.1943   ZX=     3.5314
   XY=    -2.6516   YY=    33.7780   ZY=    -1.2284
   XZ=     2.5356   YZ=     1.5607   ZZ=    41.6318
   Eigenvalues:    27.6986    34.7063    42.3590
     25  H    Isotropic =    32.2485   Anisotropy =    11.7255
   XX=    31.9291   YX=    -2.3175   ZX=     3.3789
   XY=    -1.7770   YY=    32.8611   ZY=    -5.9530
   XZ=     3.0868   YZ=    -5.9344   ZZ=    31.9553
   Eigenvalues:    26.2370    30.4430    40.0655
     26  H    Isotropic =    32.8587   Anisotropy =     9.4846
   XX=    31.0388   YX=    -1.2499   ZX=    -1.7867
   XY=    -0.9256   YY=    30.5269   ZY=    -4.0472
   XZ=    -1.9675   YZ=    -4.1470   ZZ=    37.0105
   Eigenvalues:    27.5757    31.8187    39.1818
     27  H    Isotropic =    32.1583   Anisotropy =    10.2396
   XX=    32.1935   YX=     2.1331   ZX=    -1.0349
   XY=     2.6798   YY=    34.7567   ZY=     5.8619
   XZ=    -1.4426   YZ=     6.1815   ZZ=    29.5246
   Eigenvalues:    24.8104    32.6797    38.9847
     28  H    Isotropic =    32.5384   Anisotropy =    14.9492
   XX=    40.6422   YX=    -3.9989   ZX=    -2.6035
   XY=    -3.6196   YY=    28.2172   ZY=     2.2221
   XZ=    -2.9577   YZ=     2.1941   ZZ=    28.7558
   Eigenvalues:    26.1584    28.9522    42.5045
     29  H    Isotropic =    32.5230   Anisotropy =     9.7909
   XX=    30.9857   YX=     2.4251   ZX=     1.1935
   XY=     2.5338   YY=    37.1308   ZY=    -3.6573
   XZ=     1.0982   YZ=    -3.6557   ZZ=    29.4524
   Eigenvalues:    26.9380    31.5807    39.0502
     30  H    Isotropic =    32.5611   Anisotropy =    12.6864
   XX=    30.2743   YX=     1.7426   ZX=     0.7328
   XY=     1.5488   YY=    29.9412   ZY=     6.3610
   XZ=     0.6308   YZ=     5.7543   ZZ=    37.4677
   Eigenvalues:    26.2574    30.4071    41.0186
     31  H    Isotropic =    32.4122   Anisotropy =    14.6073
   XX=    41.6975   YX=     0.8411   ZX=     2.3639
   XY=     1.4293   YY=    28.0402   ZY=     1.5264
   XZ=     1.9585   YZ=     1.6180   ZZ=    27.4990
   Eigenvalues:    26.1137    28.9726    42.1504
 End of Minotr Frequency-dependent properties file   721 does not exist.
 End of Minotr Frequency-dependent properties file   722 does not exist.

 **********************************************************************

            Population analysis using the SCF density.

 **********************************************************************

 Orbital symmetries:
       Occupied  (A) (A) (A) (A) (A) (A) (A) (A) (A) (A) (A) (A)
                 (A) (A) (A) (A) (A) (A) (A) (A) (A) (A) (A) (A)
                 (A) (A) (A) (A) (A) (A) (A) (A) (A) (A) (A) (A)
                 (A) (A) (A) (A) (A) (A) (A) (A)
       Virtual   (A) (A) (A) (A) (A) (A) (A) (A) (A) (A) (A) (A)
                 (A) (A) (A) (A) (A) (A) (A) (A) (A) (A) (A) (A)
                 (A) (A) (A) (A) (A) (A) (A)
 The electronic state is 1-A.
 Alpha  occ. eigenvalues --  -20.23735 -11.08539 -11.05063 -11.04578 -11.04299
 Alpha  occ. eigenvalues --  -11.04114 -11.04047 -11.03681 -11.03469 -11.02904
 Alpha  occ. eigenvalues --  -11.02508  -1.28013  -1.08243  -1.03859  -0.97138
 Alpha  occ. eigenvalues --   -0.95440  -0.88585  -0.88020  -0.80452  -0.78181
 Alpha  occ. eigenvalues --   -0.73095  -0.70281  -0.62187  -0.60011  -0.59076
 Alpha  occ. eigenvalues --   -0.58560  -0.56547  -0.54442  -0.52988  -0.52841
 Alpha  occ. eigenvalues --   -0.51704  -0.50450  -0.49710  -0.48225  -0.47398
 Alpha  occ. eigenvalues --   -0.45448  -0.43985  -0.43053  -0.42424  -0.41791
 Alpha  occ. eigenvalues --   -0.39854  -0.39423  -0.36549  -0.32364
 Alpha virt. eigenvalues --    0.53505   0.55840   0.57245   0.58308   0.60531
 Alpha virt. eigenvalues --    0.61161   0.62313   0.64941   0.66094   0.67539
 Alpha virt. eigenvalues --    0.68221   0.69059   0.70663   0.72135   0.72489
 Alpha virt. eigenvalues --    0.73134   0.73466   0.74450   0.75084   0.75940
 Alpha virt. eigenvalues --    0.77281   0.77657   0.78249   0.79383   0.79472
 Alpha virt. eigenvalues --    0.81270   0.81798   0.82485   0.83221   0.83938
 Alpha virt. eigenvalues --    0.85105
          Condensed to atoms (all electrons):
              1          2          3          4          5          6
     1  C    4.738766   0.365883   0.000694   0.000729   0.000004  -0.024150
     2  C    0.365883   4.749464  -0.020604  -0.021931  -0.003716   0.363914
     3  C    0.000694  -0.020604   4.741421  -0.022590   0.353965  -0.003484
     4  C    0.000729  -0.021931  -0.022590   4.760094   0.361721   0.362755
     5  C    0.000004  -0.003716   0.353965   0.361721   4.794106  -0.021615
     6  C   -0.024150   0.363914  -0.003484   0.362755  -0.021615   4.758210
     7  C   -0.023884   0.362522   0.356127  -0.003584  -0.024416  -0.023414
     8  O    0.000000  -0.000774   0.269542  -0.000784  -0.016686   0.000047
     9  C    0.000000   0.000004  -0.020142  -0.019859   0.359037   0.000608
    10  C    0.000000   0.000000  -0.000184  -0.002971  -0.019262   0.000013
    11  C    0.000000   0.000000   0.000651  -0.001002  -0.023176   0.000002
    12  H    0.382309  -0.020695   0.000008   0.000008   0.000002  -0.002233
    13  H    0.382377  -0.020279   0.000012  -0.000017   0.000000   0.001289
    14  H    0.382409  -0.020307  -0.000017   0.000013   0.000000  -0.002236
    15  H   -0.024332   0.381128  -0.001172  -0.001669   0.000098  -0.024415
    16  H   -0.000013   0.001152   0.379845   0.001127  -0.023523   0.000011
    17  H   -0.000016   0.001248   0.001179   0.383289  -0.020503  -0.021874
    18  H    0.000004  -0.001734  -0.001493   0.380841  -0.021987  -0.023512
    19  H   -0.000006   0.000079  -0.023486  -0.024470   0.378442  -0.002380
    20  H   -0.002637  -0.022387   0.000055  -0.022888  -0.001837   0.381109
    21  H   -0.001965  -0.021431   0.000001  -0.021815   0.001220   0.382599
    22  H   -0.002888  -0.022174  -0.020829   0.000073  -0.001031  -0.001574
    23  H   -0.001904  -0.022067  -0.021307   0.000001   0.001147   0.001238
    24  H   -0.000008  -0.000387  -0.041384  -0.000238  -0.002566   0.000000
    25  H    0.000000   0.000000  -0.003676   0.001068  -0.023346  -0.000014
    26  H    0.000000   0.000000   0.000009  -0.000765  -0.001414   0.000005
    27  H    0.000000   0.000000   0.000004  -0.000056  -0.001401  -0.000002
    28  H    0.000000   0.000000  -0.000007   0.000033   0.001083   0.000000
    29  H    0.000000   0.000000  -0.000002  -0.000461  -0.001485  -0.000004
    30  H    0.000000   0.000000   0.000028   0.000043  -0.002655  -0.000002
    31  H    0.000000   0.000000  -0.000014   0.000002   0.001194   0.000000
              7          8          9         10         11         12
     1  C   -0.023884   0.000000   0.000000   0.000000   0.000000   0.382309
     2  C    0.362522  -0.000774   0.000004   0.000000   0.000000  -0.020695
     3  C    0.356127   0.269542  -0.020142  -0.000184   0.000651   0.000008
     4  C   -0.003584  -0.000784  -0.019859  -0.002971  -0.001002   0.000008
     5  C   -0.024416  -0.016686   0.359037  -0.019262  -0.023176   0.000002
     6  C   -0.023414   0.000047   0.000608   0.000013   0.000002  -0.002233
     7  C    4.784829  -0.020276   0.000591  -0.000006  -0.000005  -0.002230
     8  O   -0.020276   7.847377  -0.000296  -0.001095  -0.000001   0.000000
     9  C    0.000591  -0.000296   4.736752   0.364632   0.363822   0.000000
    10  C   -0.000006  -0.001095   0.364632   4.745688  -0.027040   0.000000
    11  C   -0.000005  -0.000001   0.363822  -0.027040   4.746024   0.000000
    12  H   -0.002230   0.000000   0.000000   0.000000   0.000000   0.629637
    13  H   -0.002203   0.000000   0.000000   0.000000   0.000000  -0.021617
    14  H    0.001275   0.000000   0.000000   0.000000   0.000000  -0.021691
    15  H   -0.023961  -0.000299  -0.000003   0.000000   0.000000   0.001896
    16  H   -0.024274  -0.019919  -0.002143   0.000011   0.000017  -0.000001
    17  H    0.000000   0.000000  -0.001601  -0.000065  -0.000460   0.000000
    18  H    0.000102  -0.000261  -0.001569  -0.000763   0.000039  -0.000001
    19  H   -0.001753   0.000570  -0.023053   0.001098  -0.004753   0.000000
    20  H   -0.001622  -0.000001   0.000005  -0.000001   0.000002   0.000352
    21  H    0.001230   0.000000  -0.000013   0.000000   0.000000   0.000001
    22  H    0.379267   0.000628   0.000005   0.000000   0.000000   0.000362
    23  H    0.381972  -0.001013  -0.000013   0.000000   0.000000  -0.000001
    24  H   -0.002332   0.258355   0.000022  -0.000176  -0.000002   0.000000
    25  H    0.000029   0.000100   0.381589  -0.024229  -0.024646   0.000000
    26  H    0.000000   0.000023  -0.020517   0.382065  -0.002424   0.000000
    27  H    0.000001   0.000497  -0.019233   0.382576   0.001339   0.000000
    28  H    0.000000   0.000013  -0.019968   0.381968  -0.002696   0.000000
    29  H    0.000000   0.000000  -0.020271  -0.002348   0.382132   0.000000
    30  H   -0.000001   0.000000  -0.020131   0.001330   0.382119   0.000000
    31  H    0.000000   0.000000  -0.019743  -0.002341   0.382471   0.000000
             13         14         15         16         17         18
     1  C    0.382377   0.382409  -0.024332  -0.000013  -0.000016   0.000004
     2  C   -0.020279  -0.020307   0.381128   0.001152   0.001248  -0.001734
     3  C    0.000012  -0.000017  -0.001172   0.379845   0.001179  -0.001493
     4  C   -0.000017   0.000013  -0.001669   0.001127   0.383289   0.380841
     5  C    0.000000   0.000000   0.000098  -0.023523  -0.020503  -0.021987
     6  C    0.001289  -0.002236  -0.024415   0.000011  -0.021874  -0.023512
     7  C   -0.002203   0.001275  -0.023961  -0.024274   0.000000   0.000102
     8  O    0.000000   0.000000  -0.000299  -0.019919   0.000000  -0.000261
     9  C    0.000000   0.000000  -0.000003  -0.002143  -0.001601  -0.001569
    10  C    0.000000   0.000000   0.000000   0.000011  -0.000065  -0.000763
    11  C    0.000000   0.000000   0.000000   0.000017  -0.000460   0.000039
    12  H   -0.021617  -0.021691   0.001896  -0.000001   0.000000  -0.000001
    13  H    0.628764  -0.021566  -0.002309  -0.000001   0.000000   0.000000
    14  H   -0.021566   0.629759  -0.002321   0.000000  -0.000001   0.000001
    15  H   -0.002309  -0.002321   0.657982  -0.000012   0.000004   0.000258
    16  H   -0.000001   0.000000  -0.000012   0.632307  -0.000027  -0.000009
    17  H    0.000000  -0.000001   0.000004  -0.000027   0.635765  -0.023431
    18  H    0.000000   0.000001   0.000258  -0.000009  -0.023431   0.649888
    19  H    0.000000   0.000000   0.000006  -0.002324  -0.002513   0.001944
    20  H    0.000018  -0.000013   0.001901  -0.000012  -0.002851   0.001961
    21  H    0.000011   0.000239  -0.002683   0.000002  -0.001991  -0.002806
    22  H   -0.000017   0.000023   0.001909  -0.002682  -0.000007   0.000003
    23  H    0.000246   0.000010  -0.002789  -0.001795   0.000002  -0.000009
    24  H    0.000000   0.000001  -0.000524   0.003649  -0.000017  -0.000470
    25  H    0.000000   0.000000   0.000000   0.000248   0.000005   0.000001
    26  H    0.000000   0.000000   0.000000  -0.000001  -0.000045  -0.000911
    27  H    0.000000   0.000000   0.000000   0.000004   0.000014  -0.000038
    28  H    0.000000   0.000000   0.000000  -0.000001  -0.000006   0.000010
    29  H    0.000000   0.000000   0.000000   0.000000  -0.000397   0.000031
    30  H    0.000000   0.000000   0.000000   0.000006   0.000035  -0.000001
    31  H    0.000000   0.000000   0.000000  -0.000001  -0.000005  -0.000002
             19         20         21         22         23         24
     1  C   -0.000006  -0.002637  -0.001965  -0.002888  -0.001904  -0.000008
     2  C    0.000079  -0.022387  -0.021431  -0.022174  -0.022067  -0.000387
     3  C   -0.023486   0.000055   0.000001  -0.020829  -0.021307  -0.041384
     4  C   -0.024470  -0.022888  -0.021815   0.000073   0.000001  -0.000238
     5  C    0.378442  -0.001837   0.001220  -0.001031   0.001147  -0.002566
     6  C   -0.002380   0.381109   0.382599  -0.001574   0.001238   0.000000
     7  C   -0.001753  -0.001622   0.001230   0.379267   0.381972  -0.002332
     8  O    0.000570  -0.000001   0.000000   0.000628  -0.001013   0.258355
     9  C   -0.023053   0.000005  -0.000013   0.000005  -0.000013   0.000022
    10  C    0.001098  -0.000001   0.000000   0.000000   0.000000  -0.000176
    11  C   -0.004753   0.000002   0.000000   0.000000   0.000000  -0.000002
    12  H    0.000000   0.000352   0.000001   0.000362  -0.000001   0.000000
    13  H    0.000000   0.000018   0.000011  -0.000017   0.000246   0.000000
    14  H    0.000000  -0.000013   0.000239   0.000023   0.000010   0.000001
    15  H    0.000006   0.001901  -0.002683   0.001909  -0.002789  -0.000524
    16  H   -0.002324  -0.000012   0.000002  -0.002682  -0.001795   0.003649
    17  H   -0.002513  -0.002851  -0.001991  -0.000007   0.000002  -0.000017
    18  H    0.001944   0.001961  -0.002806   0.000003  -0.000009  -0.000470
    19  H    0.656494   0.000331   0.000015  -0.000063   0.000019  -0.000018
    20  H    0.000331   0.643133  -0.023320   0.000310   0.000001   0.000000
    21  H    0.000015  -0.023320   0.640086   0.000001  -0.000034   0.000005
    22  H   -0.000063   0.000310   0.000001   0.640824  -0.022046  -0.000021
    23  H    0.000019   0.000001  -0.000034  -0.022046   0.630292   0.000016
    24  H   -0.000018   0.000000   0.000005  -0.000021   0.000016   0.608233
    25  H   -0.000781   0.000000   0.000000   0.000001  -0.000002   0.000015
    26  H   -0.000001   0.000000   0.000001   0.000000   0.000000  -0.000018
    27  H    0.000003   0.000000   0.000000   0.000000   0.000000  -0.000599
    28  H   -0.000028   0.000000   0.000000   0.000000   0.000000   0.000004
    29  H    0.000032   0.000001   0.000001   0.000000   0.000000   0.000000
    30  H    0.000028   0.000000   0.000000   0.000000   0.000000   0.000000
    31  H    0.000067   0.000000   0.000000   0.000000   0.000000   0.000000
             25         26         27         28         29         30
     1  C    0.000000   0.000000   0.000000   0.000000   0.000000   0.000000
     2  C    0.000000   0.000000   0.000000   0.000000   0.000000   0.000000
     3  C   -0.003676   0.000009   0.000004  -0.000007  -0.000002   0.000028
     4  C    0.001068  -0.000765  -0.000056   0.000033  -0.000461   0.000043
     5  C   -0.023346  -0.001414  -0.001401   0.001083  -0.001485  -0.002655
     6  C   -0.000014   0.000005  -0.000002   0.000000  -0.000004  -0.000002
     7  C    0.000029   0.000000   0.000001   0.000000   0.000000  -0.000001
     8  O    0.000100   0.000023   0.000497   0.000013   0.000000   0.000000
     9  C    0.381589  -0.020517  -0.019233  -0.019968  -0.020271  -0.020131
    10  C   -0.024229   0.382065   0.382576   0.381968  -0.002348   0.001330
    11  C   -0.024646  -0.002424   0.001339  -0.002696   0.382132   0.382119
    12  H    0.000000   0.000000   0.000000   0.000000   0.000000   0.000000
    13  H    0.000000   0.000000   0.000000   0.000000   0.000000   0.000000
    14  H    0.000000   0.000000   0.000000   0.000000   0.000000   0.000000
    15  H    0.000000   0.000000   0.000000   0.000000   0.000000   0.000000
    16  H    0.000248  -0.000001   0.000004  -0.000001   0.000000   0.000006
    17  H    0.000005  -0.000045   0.000014  -0.000006  -0.000397   0.000035
    18  H    0.000001  -0.000911  -0.000038   0.000010   0.000031  -0.000001
    19  H   -0.000781  -0.000001   0.000003  -0.000028   0.000032   0.000028
    20  H    0.000000   0.000000   0.000000   0.000000   0.000001   0.000000
    21  H    0.000000   0.000001   0.000000   0.000000   0.000001   0.000000
    22  H    0.000001   0.000000   0.000000   0.000000   0.000000   0.000000
    23  H   -0.000002   0.000000   0.000000   0.000000   0.000000   0.000000
    24  H    0.000015  -0.000018  -0.000599   0.000004   0.000000   0.000000
    25  H    0.648875   0.001892  -0.002023  -0.002602   0.001913  -0.002147
    26  H    0.001892   0.635175  -0.021662  -0.022159   0.000343   0.000014
    27  H   -0.002023  -0.021662   0.616731  -0.021852   0.000012  -0.000037
    28  H   -0.002602  -0.022159  -0.021852   0.632606  -0.000008   0.000036
    29  H    0.001913   0.000343   0.000012  -0.000008   0.632600  -0.021830
    30  H   -0.002147   0.000014  -0.000037   0.000036  -0.021830   0.634111
    31  H   -0.002666  -0.000011   0.000029   0.000035  -0.021927  -0.021882
             31
     1  C    0.000000
     2  C    0.000000
     3  C   -0.000014
     4  C    0.000002
     5  C    0.001194
     6  C    0.000000
     7  C    0.000000
     8  O    0.000000
     9  C   -0.019743
    10  C   -0.002341
    11  C    0.382471
    12  H    0.000000
    13  H    0.000000
    14  H    0.000000
    15  H    0.000000
    16  H   -0.000001
    17  H   -0.000005
    18  H   -0.000002
    19  H    0.000067
    20  H    0.000000
    21  H    0.000000
    22  H    0.000000
    23  H    0.000000
    24  H    0.000000
    25  H   -0.002666
    26  H   -0.000011
    27  H    0.000029
    28  H    0.000035
    29  H   -0.021927
    30  H   -0.021882
    31  H    0.630864
 Mulliken atomic charges:
              1
     1  C   -0.171372
     2  C   -0.026909
     3  C    0.076852
     4  C   -0.106697
     5  C   -0.041399
     6  C   -0.100894
     7  C   -0.113986
     8  O   -0.315746
     9  C   -0.018511
    10  C   -0.178901
    11  C   -0.172412
    12  H    0.053893
    13  H    0.055292
    14  H    0.054420
    15  H    0.041308
    16  H    0.058358
    17  H    0.054269
    18  H    0.043914
    19  H    0.046502
    20  H    0.048392
    21  H    0.050644
    22  H    0.049925
    23  H    0.058036
    24  H    0.178460
    25  H    0.050396
    26  H    0.050400
    27  H    0.065695
    28  H    0.053538
    29  H    0.051670
    30  H    0.050936
    31  H    0.053928
 Sum of Mulliken atomic charges =   0.00000
 Mulliken charges with hydrogens summed into heavy atoms:
              1
     1  C   -0.007767
     2  C    0.014399
     3  C    0.135209
     4  C   -0.008514
     5  C    0.005103
     6  C   -0.001858
     7  C   -0.006025
     8  O   -0.137287
     9  C    0.031885
    10  C   -0.009268
    11  C   -0.015877
 Sum of Mulliken charges with hydrogens summed into heavy atoms =   0.00000
 Electronic spatial extent (au):  <R**2>=           2150.6771
 Charge=              0.0000 electrons
 Dipole moment (field-independent basis, Debye):
    X=              0.5418    Y=             -1.3700    Z=              0.0555  Tot=              1.4743
 Quadrupole moment (field-independent basis, Debye-Ang):
   XX=            -68.1148   YY=            -72.4883   ZZ=            -65.4511
   XY=              0.6962   XZ=              0.6469   YZ=             -0.3497
 Traceless Quadrupole moment (field-independent basis, Debye-Ang):
   XX=              0.5699   YY=             -3.8036   ZZ=              3.2337
   XY=              0.6962   XZ=              0.6469   YZ=             -0.3497
 Octapole moment (field-independent basis, Debye-Ang**2):
  XXX=             -3.5343  YYY=             -1.7974  ZZZ=              3.7293  XYY=              2.5268
  XXY=              6.4945  XXZ=              1.0150  XZZ=              1.9079  YZZ=              5.3456
  YYZ=             -0.4645  XYZ=              1.7096
 Hexadecapole moment (field-independent basis, Debye-Ang**3):
 XXXX=          -1951.0901 YYYY=           -546.1319 ZZZZ=           -292.7846 XXXY=             -1.4024
 XXXZ=              3.0854 YYYX=              3.2805 YYYZ=             -1.6834 ZZZX=              3.1046
 ZZZY=              9.5015 XXYY=           -409.6462 XXZZ=           -375.9574 YYZZ=           -128.9076
 XXYZ=             -2.2666 YYXZ=             -0.0341 ZZXY=             -2.2391
 N-N= 6.948784323698D+02 E-N=-2.461598892219D+03  KE= 4.555458833975D+02
 ******************************Gaussian NBO Version 3.1******************************
             N A T U R A L   A T O M I C   O R B I T A L   A N D
          N A T U R A L   B O N D   O R B I T A L   A N A L Y S I S
 ******************************Gaussian NBO Version 3.1******************************
       /RESON  / : Allow strongly delocalized NBO set
       /NLMO   / : Form Natural Localized Molecular Orbitals
       /NMR /    : Analyze NMR Sheilding Tensor 

 Analyzing the SCF density

 Job title: comment                                                         

 Storage needed:     19864 in NPA,     23691 in NBO,     45933 in NLMO (  33549317 available)


 NATURAL POPULATIONS:  Natural atomic orbital occupancies 
                                                          
   NAO  Atom  No  lang   Type(AO)    Occupancy      Energy
 ----------------------------------------------------------
     1    C    1  S      Cor( 1S)     1.99997     -10.96827
     2    C    1  S      Val( 2S)     1.07973      -0.18461
     3    C    1  px     Val( 2p)     0.99176       0.08524
     4    C    1  py     Val( 2p)     1.02745       0.08113
     5    C    1  pz     Val( 2p)     1.02767       0.08120

     6    C    2  S      Cor( 1S)     1.99997     -10.99314
     7    C    2  S      Val( 2S)     1.07965      -0.19695
     8    C    2  px     Val( 2p)     0.95833       0.10174
     9    C    2  py     Val( 2p)     0.96728       0.10199
    10    C    2  pz     Val( 2p)     0.98269       0.10017

    11    C    3  S      Cor( 1S)     1.99989     -11.03465
    12    C    3  S      Val( 2S)     1.08865      -0.21700
    13    C    3  px     Val( 2p)     0.96109       0.09151
    14    C    3  py     Val( 2p)     0.91160       0.10877
    15    C    3  pz     Val( 2p)     0.89558       0.10163

    16    C    4  S      Cor( 1S)     1.99996     -10.97936
    17    C    4  S      Val( 2S)     1.08355      -0.19397
    18    C    4  px     Val( 2p)     0.98179       0.09039
    19    C    4  py     Val( 2p)     1.00876       0.08564
    20    C    4  pz     Val( 2p)     0.99473       0.09179

    21    C    5  S      Cor( 1S)     1.99995     -10.98843
    22    C    5  S      Val( 2S)     1.10299      -0.21308
    23    C    5  px     Val( 2p)     0.96109       0.10273
    24    C    5  py     Val( 2p)     0.97257       0.09899
    25    C    5  pz     Val( 2p)     0.98475       0.09854

    26    C    6  S      Cor( 1S)     1.99996     -10.97858
    27    C    6  S      Val( 2S)     1.08391      -0.19291
    28    C    6  px     Val( 2p)     0.97318       0.09490
    29    C    6  py     Val( 2p)     0.98719       0.09155
    30    C    6  pz     Val( 2p)     1.01908       0.08690

    31    C    7  S      Cor( 1S)     1.99996     -10.97543
    32    C    7  S      Val( 2S)     1.09406      -0.20023
    33    C    7  px     Val( 2p)     0.98964       0.08737
    34    C    7  py     Val( 2p)     1.01017       0.08737
    35    C    7  pz     Val( 2p)     0.99682       0.08936

    36    O    8  S      Cor( 1S)     1.99999     -20.14064
    37    O    8  S      Val( 2S)     1.74599      -0.99603
    38    O    8  px     Val( 2p)     1.90492      -0.34380
    39    O    8  py     Val( 2p)     1.54868      -0.20939
    40    O    8  pz     Val( 2p)     1.13689      -0.02127

    41    C    9  S      Cor( 1S)     1.99996     -10.98998
    42    C    9  S      Val( 2S)     1.08470      -0.19439
    43    C    9  px     Val( 2p)     0.94819       0.11404
    44    C    9  py     Val( 2p)     0.97281       0.10842
    45    C    9  pz     Val( 2p)     0.97165       0.10976

    46    C   10  S      Cor( 1S)     1.99997     -10.95865
    47    C   10  S      Val( 2S)     1.08021      -0.17648
    48    C   10  px     Val( 2p)     1.02881       0.08600
    49    C   10  py     Val( 2p)     1.03035       0.08949
    50    C   10  pz     Val( 2p)     0.99617       0.09455

    51    C   11  S      Cor( 1S)     1.99997     -10.96294
    52    C   11  S      Val( 2S)     1.08201      -0.18174
    53    C   11  px     Val( 2p)     1.01893       0.08519
    54    C   11  py     Val( 2p)     1.00449       0.08890
    55    C   11  pz     Val( 2p)     1.02236       0.08707

    56    H   12  S      Val( 1S)     0.96349       0.07161

    57    H   13  S      Val( 1S)     0.96217       0.07289

    58    H   14  S      Val( 1S)     0.96295       0.07198

    59    H   15  S      Val( 1S)     0.98231       0.05596

    60    H   16  S      Val( 1S)     0.97705       0.05775

    61    H   17  S      Val( 1S)     0.96659       0.06948

    62    H   18  S      Val( 1S)     0.97642       0.06161

    63    H   19  S      Val( 1S)     0.97794       0.06078

    64    H   20  S      Val( 1S)     0.97240       0.06537

    65    H   21  S      Val( 1S)     0.97016       0.06638

    66    H   22  S      Val( 1S)     0.97012       0.06503

    67    H   23  S      Val( 1S)     0.96299       0.07280

    68    H   24  S      Val( 1S)     0.80934       0.08083

    69    H   25  S      Val( 1S)     0.97519       0.07039

    70    H   26  S      Val( 1S)     0.96643       0.07684

    71    H   27  S      Val( 1S)     0.95308       0.09213

    72    H   28  S      Val( 1S)     0.96312       0.07898

    73    H   29  S      Val( 1S)     0.96587       0.07528

    74    H   30  S      Val( 1S)     0.96645       0.07456

    75    H   31  S      Val( 1S)     0.96349       0.07600


 Summary of Natural Population Analysis:                  
                                                          
                                       Natural Population 
                Natural  -----------------------------------------------
    Atom  No    Charge         Core      Valence    Rydberg      Total
 -----------------------------------------------------------------------
      C    1   -0.12658      1.99997     4.12660    0.00000     6.12658
      C    2    0.01207      1.99997     3.98796    0.00000     5.98793
      C    3    0.14320      1.99989     3.85691    0.00000     5.85680
      C    4   -0.06878      1.99996     4.06882    0.00000     6.06878
      C    5   -0.02136      1.99995     4.02141    0.00000     6.02136
      C    6   -0.06332      1.99996     4.06335    0.00000     6.06332
      C    7   -0.09065      1.99996     4.09069    0.00000     6.09065
      O    8   -0.33646      1.99999     6.33647    0.00000     8.33646
      C    9    0.02269      1.99996     3.97735    0.00000     5.97731
      C   10   -0.13550      1.99997     4.13553    0.00000     6.13550
      C   11   -0.12775      1.99997     4.12778    0.00000     6.12775
      H   12    0.03651      0.00000     0.96349    0.00000     0.96349
      H   13    0.03783      0.00000     0.96217    0.00000     0.96217
      H   14    0.03705      0.00000     0.96295    0.00000     0.96295
      H   15    0.01769      0.00000     0.98231    0.00000     0.98231
      H   16    0.02295      0.00000     0.97705    0.00000     0.97705
      H   17    0.03341      0.00000     0.96659    0.00000     0.96659
      H   18    0.02358      0.00000     0.97642    0.00000     0.97642
      H   19    0.02206      0.00000     0.97794    0.00000     0.97794
      H   20    0.02760      0.00000     0.97240    0.00000     0.97240
      H   21    0.02984      0.00000     0.97016    0.00000     0.97016
      H   22    0.02988      0.00000     0.97012    0.00000     0.97012
      H   23    0.03701      0.00000     0.96299    0.00000     0.96299
      H   24    0.19066      0.00000     0.80934    0.00000     0.80934
      H   25    0.02481      0.00000     0.97519    0.00000     0.97519
      H   26    0.03357      0.00000     0.96643    0.00000     0.96643
      H   27    0.04692      0.00000     0.95308    0.00000     0.95308
      H   28    0.03688      0.00000     0.96312    0.00000     0.96312
      H   29    0.03413      0.00000     0.96587    0.00000     0.96587
      H   30    0.03355      0.00000     0.96645    0.00000     0.96645
      H   31    0.03651      0.00000     0.96349    0.00000     0.96349
 =======================================================================
   * Total *    0.00000     21.99956    66.00044    0.00000    88.00000

                                 Natural Population      
 --------------------------------------------------------
   Core                      21.99956 ( 99.9980% of  22)
   Valence                   66.00044 (100.0007% of  66)
   Natural Minimal Basis     88.00000 (100.0000% of  88)
   Natural Rydberg Basis      0.00000 (  0.0000% of  88)
 --------------------------------------------------------

    Atom  No          Natural Electron Configuration
 ----------------------------------------------------------------------------
      C    1      [core]2S( 1.08)2p( 3.05)
      C    2      [core]2S( 1.08)2p( 2.91)
      C    3      [core]2S( 1.09)2p( 2.77)
      C    4      [core]2S( 1.08)2p( 2.99)
      C    5      [core]2S( 1.10)2p( 2.92)
      C    6      [core]2S( 1.08)2p( 2.98)
      C    7      [core]2S( 1.09)2p( 3.00)
      O    8      [core]2S( 1.75)2p( 4.59)
      C    9      [core]2S( 1.08)2p( 2.89)
      C   10      [core]2S( 1.08)2p( 3.06)
      C   11      [core]2S( 1.08)2p( 3.05)
      H   12            1S( 0.96)
      H   13            1S( 0.96)
      H   14            1S( 0.96)
      H   15            1S( 0.98)
      H   16            1S( 0.98)
      H   17            1S( 0.97)
      H   18            1S( 0.98)
      H   19            1S( 0.98)
      H   20            1S( 0.97)
      H   21            1S( 0.97)
      H   22            1S( 0.97)
      H   23            1S( 0.96)
      H   24            1S( 0.81)
      H   25            1S( 0.98)
      H   26            1S( 0.97)
      H   27            1S( 0.95)
      H   28            1S( 0.96)
      H   29            1S( 0.97)
      H   30            1S( 0.97)
      H   31            1S( 0.96)


 NATURAL BOND ORBITAL ANALYSIS:

                       Occupancies       Lewis Structure    Low   High
           Occ.    -------------------  -----------------   occ   occ
  Cycle   Thresh.   Lewis   Non-Lewis     CR  BD  3C  LP    (L)   (NL)   Dev
 =============================================================================
   1(1)    1.90    87.63016   0.36984     11  31   0   2     0      0    0.02
 -----------------------------------------------------------------------------

 Structure accepted: No low occupancy Lewis orbitals

 --------------------------------------------------------
   Core                     21.99955 ( 99.998% of  22)
   Valence Lewis            65.63061 ( 99.440% of  66)
  ==================       ============================
   Total Lewis              87.63016 ( 99.580% of  88)
  -----------------------------------------------------
   Valence non-Lewis         0.36984 (  0.420% of  88)
   Rydberg non-Lewis         0.00000 (  0.000% of  88)
  ==================       ============================
   Total non-Lewis           0.36984 (  0.420% of  88)
 --------------------------------------------------------


       (Occupancy)   Bond orbital/ Coefficients/ Hybrids
 ---------------------------------------------------------------------------------
     1. (1.98863) BD ( 1) C   1 - C   2  
                ( 50.73%)   0.7122* C   1 s( 25.71%)p 2.89( 74.29%)
                                            0.0001  0.5070 -0.8251  0.1940  0.1564
                ( 49.27%)   0.7019* C   2 s( 25.21%)p 2.97( 74.79%)
                                            0.0000  0.5021  0.8210 -0.2042 -0.1795
     2. (1.99539) BD ( 1) C   1 - H  12  
                ( 51.87%)   0.7202* C   1 s( 24.84%)p 3.03( 75.16%)
                                            0.0000  0.4984  0.0616 -0.4406 -0.7441
                ( 48.13%)   0.6938* H  12 s(100.00%)
                                            1.0000
     3. (1.99500) BD ( 1) C   1 - H  13  
                ( 51.90%)   0.7204* C   1 s( 24.72%)p 3.05( 75.28%)
                                            0.0000  0.4972  0.4656  0.7296 -0.0604
                ( 48.10%)   0.6935* H  13 s(100.00%)
                                            1.0000
     4. (1.99498) BD ( 1) C   1 - H  14  
                ( 51.86%)   0.7202* C   1 s( 24.73%)p 3.04( 75.27%)
                                            0.0000  0.4973  0.3140 -0.4857  0.6467
                ( 48.14%)   0.6938* H  14 s(100.00%)
                                            1.0000
     5. (1.98571) BD ( 1) C   2 - C   6  
                ( 49.65%)   0.7046* C   2 s( 25.04%)p 2.99( 74.96%)
                                            0.0000  0.5004 -0.4703 -0.7234  0.0714
                ( 50.35%)   0.7096* C   6 s( 25.35%)p 2.94( 74.65%)
                                            0.0001  0.5035  0.4591  0.7268 -0.0866
     6. (1.98511) BD ( 1) C   2 - C   7  
                ( 49.71%)   0.7050* C   2 s( 25.08%)p 2.99( 74.92%)
                                            0.0000  0.5008 -0.3222  0.4933 -0.6341
                ( 50.29%)   0.7092* C   7 s( 25.10%)p 2.98( 74.90%)
                                            0.0001  0.5010  0.2982 -0.5073  0.6346
     7. (1.98390) BD ( 1) C   2 - H  15  
                ( 50.81%)   0.7128* C   2 s( 24.68%)p 3.05( 75.32%)
                                            0.0000  0.4967 -0.0312  0.4378  0.7488
                ( 49.19%)   0.7014* H  15 s(100.00%)
                                            1.0000
     8. (1.98234) BD ( 1) C   3 - C   5  
                ( 50.01%)   0.7072* C   3 s( 25.76%)p 2.88( 74.24%)
                                            0.0001  0.5076 -0.4589 -0.7189  0.1227
                ( 49.99%)   0.7070* C   5 s( 24.85%)p 3.02( 75.15%)
                                            0.0000  0.4985  0.4448  0.7420 -0.0552
     9. (1.98681) BD ( 1) C   3 - C   7  
                ( 49.31%)   0.7022* C   3 s( 25.50%)p 2.92( 74.50%)
                                            0.0000  0.5050  0.8365 -0.1928 -0.0902
                ( 50.69%)   0.7120* C   7 s( 25.11%)p 2.98( 74.89%)
                                            0.0000  0.5010 -0.8413  0.1587  0.1267
    10. (1.98879) BD ( 1) C   3 - O   8  
                ( 40.98%)   0.6402* C   3 s( 22.47%)p 3.45( 77.53%)
                                            0.0000  0.4741 -0.0913  0.5140  0.7090
                ( 59.02%)   0.7682* O   8 s( 16.72%)p 4.98( 83.28%)
                                            0.0000  0.4090  0.1179 -0.6238 -0.6555
    11. (1.98600) BD ( 1) C   3 - H  16  
                ( 51.24%)   0.7158* C   3 s( 26.26%)p 2.81( 73.74%)
                                           -0.0001  0.5125 -0.2853  0.4264 -0.6886
                ( 48.76%)   0.6983* H  16 s(100.00%)
                                            1.0000
    12. (1.98549) BD ( 1) C   4 - C   5  
                ( 50.56%)   0.7110* C   4 s( 25.35%)p 2.94( 74.65%)
                                            0.0001  0.5035 -0.3151  0.4975 -0.6323
                ( 49.44%)   0.7032* C   5 s( 25.35%)p 2.95( 74.65%)
                                            0.0000  0.5035  0.3009 -0.4695  0.6600
    13. (1.98881) BD ( 1) C   4 - C   6  
                ( 50.07%)   0.7076* C   4 s( 24.99%)p 3.00( 75.01%)
                                            0.0000  0.4999  0.8385 -0.1604 -0.1459
                ( 49.93%)   0.7066* C   6 s( 25.12%)p 2.98( 74.88%)
                                            0.0000  0.5012 -0.8340  0.1944  0.1243
    14. (1.98899) BD ( 1) C   4 - H  17  
                ( 51.64%)   0.7186* C   4 s( 25.01%)p 3.00( 74.99%)
                                            0.0000  0.5001 -0.4364 -0.7475  0.0276
                ( 48.36%)   0.6954* H  17 s(100.00%)
                                            1.0000
    15. (1.98914) BD ( 1) C   4 - H  18  
                ( 51.20%)   0.7155* C   4 s( 24.65%)p 3.06( 75.35%)
                                            0.0000  0.4965 -0.0852  0.4100  0.7604
                ( 48.80%)   0.6986* H  18 s(100.00%)
                                            1.0000
    16. (1.97906) BD ( 1) C   5 - C   9  
                ( 50.32%)   0.7094* C   5 s( 25.83%)p 2.87( 74.17%)
                                            0.0001  0.5083 -0.8368  0.1686  0.1138
                ( 49.68%)   0.7048* C   9 s( 25.41%)p 2.94( 74.59%)
                                            0.0001  0.5041  0.8493 -0.1546 -0.0255
    17. (1.98241) BD ( 1) C   5 - H  19  
                ( 50.97%)   0.7139* C   5 s( 23.97%)p 3.17( 76.03%)
                                            0.0000  0.4896  0.1064 -0.4478 -0.7406
                ( 49.03%)   0.7002* H  19 s(100.00%)
                                            1.0000
    18. (1.99069) BD ( 1) C   6 - H  20  
                ( 51.41%)   0.7170* C   6 s( 24.65%)p 3.06( 75.35%)
                                            0.0000  0.4964  0.0794 -0.4798 -0.7191
                ( 48.59%)   0.6971* H  20 s(100.00%)
                                            1.0000
    19. (1.98994) BD ( 1) C   6 - H  21  
                ( 51.47%)   0.7174* C   6 s( 24.88%)p 3.02( 75.12%)
                                            0.0000  0.4988  0.2956 -0.4515  0.6782
                ( 48.53%)   0.6966* H  21 s(100.00%)
                                            1.0000
    20. (1.98932) BD ( 1) C   7 - H  22  
                ( 51.47%)   0.7174* C   7 s( 24.72%)p 3.05( 75.28%)
                                            0.0000  0.4972  0.1057 -0.4006 -0.7624
                ( 48.53%)   0.6966* H  22 s(100.00%)
                                            1.0000
    21. (1.98899) BD ( 1) C   7 - H  23  
                ( 51.81%)   0.7198* C   7 s( 25.08%)p 2.99( 74.92%)
                                            0.0000  0.5008  0.4384  0.7463 -0.0047
                ( 48.19%)   0.6942* H  23 s(100.00%)
                                            1.0000
    22. (1.98888) BD ( 1) O   8 - H  24  
                ( 59.63%)   0.7722* O   8 s( 17.00%)p 4.88( 83.00%)
                                            0.0000 -0.4123 -0.2777  0.4541 -0.7394
                ( 40.37%)   0.6354* H  24 s(100.00%)
                                           -1.0000
    23. (1.99005) BD ( 1) C   9 - C  10  
                ( 49.24%)   0.7017* C   9 s( 25.55%)p 2.91( 74.45%)
                                            0.0000  0.5055 -0.2314  0.2455  0.7941
                ( 50.76%)   0.7125* C  10 s( 25.91%)p 2.86( 74.09%)
                                            0.0001  0.5090  0.2846 -0.2564 -0.7708
    24. (1.98917) BD ( 1) C   9 - C  11  
                ( 48.89%)   0.6992* C   9 s( 24.56%)p 3.07( 75.44%)
                                            0.0000  0.4956 -0.4320 -0.7212 -0.2184
                ( 51.11%)   0.7149* C  11 s( 25.75%)p 2.88( 74.25%)
                                            0.0001  0.5075  0.4570  0.6920  0.2341
    25. (1.98423) BD ( 1) C   9 - H  25  
                ( 51.14%)   0.7151* C   9 s( 24.48%)p 3.08( 75.52%)
                                            0.0000  0.4948 -0.1962  0.6290 -0.5666
                ( 48.86%)   0.6990* H  25 s(100.00%)
                                            1.0000
    26. (1.99510) BD ( 1) C  10 - H  26  
                ( 51.72%)   0.7192* C  10 s( 24.74%)p 3.04( 75.26%)
                                            0.0000  0.4974  0.1420 -0.6220  0.5878
                ( 48.28%)   0.6948* H  26 s(100.00%)
                                            1.0000
    27. (1.99507) BD ( 1) C  10 - H  27  
                ( 52.42%)   0.7240* C  10 s( 24.97%)p 3.00( 75.03%)
                                            0.0000  0.4997  0.4122  0.7224  0.2419
                ( 47.58%)   0.6898* H  27 s(100.00%)
                                            1.0000
    28. (1.99416) BD ( 1) C  10 - H  28  
                ( 51.83%)   0.7199* C  10 s( 24.37%)p 3.10( 75.63%)
                                            0.0000  0.4937 -0.8538  0.1598 -0.0423
                ( 48.17%)   0.6941* H  28 s(100.00%)
                                            1.0000
    29. (1.99529) BD ( 1) C  11 - H  29  
                ( 51.76%)   0.7194* C  11 s( 24.90%)p 3.02( 75.10%)
                                            0.0000  0.4990  0.1429 -0.6486  0.5567
                ( 48.24%)   0.6946* H  29 s(100.00%)
                                            1.0000
    30. (1.99512) BD ( 1) C  11 - H  30  
                ( 51.70%)   0.7190* C  11 s( 24.67%)p 3.05( 75.33%)
                                            0.0000  0.4967  0.2355 -0.2501 -0.7971
                ( 48.30%)   0.6950* H  30 s(100.00%)
                                            1.0000
    31. (1.99484) BD ( 1) C  11 - H  31  
                ( 51.83%)   0.7199* C  11 s( 24.68%)p 3.05( 75.32%)
                                            0.0000  0.4968 -0.8457  0.1946 -0.0014
                ( 48.17%)   0.6940* H  31 s(100.00%)
                                            1.0000
    32. (1.99997) CR ( 1) C   1           s(100.00%)
                                            1.0000  0.0000  0.0001  0.0000  0.0000
    33. (1.99997) CR ( 1) C   2           s(100.00%)
                                            1.0000  0.0000  0.0001  0.0000  0.0000
    34. (1.99989) CR ( 1) C   3           s(100.00%)
                                            1.0000  0.0000  0.0000  0.0001  0.0000
    35. (1.99996) CR ( 1) C   4           s(100.00%)
                                            1.0000 -0.0001  0.0000 -0.0001  0.0000
    36. (1.99995) CR ( 1) C   5           s(100.00%)
                                            1.0000  0.0000  0.0000  0.0000  0.0000
    37. (1.99996) CR ( 1) C   6           s(100.00%)
                                            1.0000  0.0000  0.0000 -0.0001  0.0000
    38. (1.99996) CR ( 1) C   7           s(100.00%)
                                            1.0000  0.0000  0.0000  0.0001 -0.0001
    39. (1.99999) CR ( 1) O   8           s(100.00%)
                                            1.0000  0.0000  0.0000  0.0000  0.0000
    40. (1.99996) CR ( 1) C   9           s(100.00%)
                                            1.0000  0.0000 -0.0001  0.0000  0.0000
    41. (1.99997) CR ( 1) C  10           s(100.00%)
                                            1.0000  0.0000 -0.0001  0.0000  0.0001
    42. (1.99997) CR ( 1) C  11           s(100.00%)
                                            1.0000  0.0000 -0.0001 -0.0001  0.0000
    43. (1.99247) LP ( 1) O   8           s( 66.27%)p 0.51( 33.73%)
                                            0.0000  0.8141 -0.1970  0.5444 -0.0456
    44. (1.97073) LP ( 2) O   8           s(  0.00%)p 1.00(100.00%)
                                            0.0000  0.0025 -0.9328 -0.3290  0.1469
    45. (0.00994) BD*( 1) C   1 - C   2  
                ( 49.27%)   0.7019* C   1 s( 25.71%)p 2.89( 74.29%)
                                           -0.0001 -0.5070  0.8251 -0.1940 -0.1564
                ( 50.73%)  -0.7122* C   2 s( 25.21%)p 2.97( 74.79%)
                                            0.0000 -0.5021 -0.8210  0.2042  0.1795
    46. (0.00588) BD*( 1) C   1 - H  12  
                ( 48.13%)   0.6938* C   1 s( 24.84%)p 3.03( 75.16%)
                                            0.0000 -0.4984 -0.0616  0.4406  0.7441
                ( 51.87%)  -0.7202* H  12 s(100.00%)
                                           -1.0000
    47. (0.00511) BD*( 1) C   1 - H  13  
                ( 48.10%)   0.6935* C   1 s( 24.72%)p 3.05( 75.28%)
                                            0.0000 -0.4972 -0.4656 -0.7296  0.0604
                ( 51.90%)  -0.7204* H  13 s(100.00%)
                                           -1.0000
    48. (0.00513) BD*( 1) C   1 - H  14  
                ( 48.14%)   0.6938* C   1 s( 24.73%)p 3.04( 75.27%)
                                            0.0000 -0.4973 -0.3140  0.4857 -0.6467
                ( 51.86%)  -0.7202* H  14 s(100.00%)
                                           -1.0000
    49. (0.01611) BD*( 1) C   2 - C   6  
                ( 50.35%)   0.7096* C   2 s( 25.04%)p 2.99( 74.96%)
                                            0.0000  0.5004 -0.4703 -0.7234  0.0714
                ( 49.65%)  -0.7046* C   6 s( 25.35%)p 2.94( 74.65%)
                                            0.0001  0.5035  0.4591  0.7268 -0.0866
    50. (0.01635) BD*( 1) C   2 - C   7  
                ( 50.29%)   0.7092* C   2 s( 25.08%)p 2.99( 74.92%)
                                            0.0000  0.5008 -0.3222  0.4933 -0.6341
                ( 49.71%)  -0.7050* C   7 s( 25.10%)p 2.98( 74.90%)
                                            0.0001  0.5010  0.2982 -0.5073  0.6346
    51. (0.01264) BD*( 1) C   2 - H  15  
                ( 49.19%)   0.7014* C   2 s( 24.68%)p 3.05( 75.32%)
                                            0.0000 -0.4967  0.0312 -0.4378 -0.7488
                ( 50.81%)  -0.7128* H  15 s(100.00%)
                                           -1.0000
    52. (0.03421) BD*( 1) C   3 - C   5  
                ( 49.99%)   0.7070* C   3 s( 25.76%)p 2.88( 74.24%)
                                           -0.0001 -0.5076  0.4589  0.7189 -0.1227
                ( 50.01%)  -0.7072* C   5 s( 24.85%)p 3.02( 75.15%)
                                            0.0000 -0.4985 -0.4448 -0.7420  0.0552
    53. (0.02822) BD*( 1) C   3 - C   7  
                ( 50.69%)   0.7120* C   3 s( 25.50%)p 2.92( 74.50%)
                                            0.0000  0.5050  0.8365 -0.1928 -0.0902
                ( 49.31%)  -0.7022* C   7 s( 25.11%)p 2.98( 74.89%)
                                            0.0000  0.5010 -0.8413  0.1587  0.1267
    54. (0.02288) BD*( 1) C   3 - O   8  
                ( 59.02%)   0.7682* C   3 s( 22.47%)p 3.45( 77.53%)
                                            0.0000  0.4741 -0.0913  0.5140  0.7090
                ( 40.98%)  -0.6402* O   8 s( 16.72%)p 4.98( 83.28%)
                                            0.0000  0.4090  0.1179 -0.6238 -0.6555
    55. (0.01701) BD*( 1) C   3 - H  16  
                ( 48.76%)   0.6983* C   3 s( 26.26%)p 2.81( 73.74%)
                                            0.0001 -0.5125  0.2853 -0.4264  0.6886
                ( 51.24%)  -0.7158* H  16 s(100.00%)
                                           -1.0000
    56. (0.01680) BD*( 1) C   4 - C   5  
                ( 49.44%)   0.7032* C   4 s( 25.35%)p 2.94( 74.65%)
                                           -0.0001 -0.5035  0.3151 -0.4975  0.6323
                ( 50.56%)  -0.7110* C   5 s( 25.35%)p 2.95( 74.65%)
                                            0.0000 -0.5035 -0.3009  0.4695 -0.6600
    57. (0.01145) BD*( 1) C   4 - C   6  
                ( 49.93%)   0.7066* C   4 s( 24.99%)p 3.00( 75.01%)
                                            0.0000 -0.4999 -0.8385  0.1604  0.1459
                ( 50.07%)  -0.7076* C   6 s( 25.12%)p 2.98( 74.88%)
                                            0.0000 -0.5012  0.8340 -0.1944 -0.1243
    58. (0.00909) BD*( 1) C   4 - H  17  
                ( 48.36%)   0.6954* C   4 s( 25.01%)p 3.00( 74.99%)
                                            0.0000 -0.5001  0.4364  0.7475 -0.0276
                ( 51.64%)  -0.7186* H  17 s(100.00%)
                                           -1.0000
    59. (0.01104) BD*( 1) C   4 - H  18  
                ( 48.80%)   0.6986* C   4 s( 24.65%)p 3.06( 75.35%)
                                            0.0000 -0.4965  0.0852 -0.4100 -0.7604
                ( 51.20%)  -0.7155* H  18 s(100.00%)
                                           -1.0000
    60. (0.02253) BD*( 1) C   5 - C   9  
                ( 49.68%)   0.7048* C   5 s( 25.83%)p 2.87( 74.17%)
                                           -0.0001 -0.5083  0.8368 -0.1686 -0.1138
                ( 50.32%)  -0.7094* C   9 s( 25.41%)p 2.94( 74.59%)
                                           -0.0001 -0.5041 -0.8493  0.1546  0.0255
    61. (0.01162) BD*( 1) C   5 - H  19  
                ( 49.03%)   0.7002* C   5 s( 23.97%)p 3.17( 76.03%)
                                            0.0000 -0.4896 -0.1064  0.4478  0.7406
                ( 50.97%)  -0.7139* H  19 s(100.00%)
                                           -1.0000
    62. (0.00999) BD*( 1) C   6 - H  20  
                ( 48.59%)   0.6971* C   6 s( 24.65%)p 3.06( 75.35%)
                                            0.0000 -0.4964 -0.0794  0.4798  0.7191
                ( 51.41%)  -0.7170* H  20 s(100.00%)
                                           -1.0000
    63. (0.00860) BD*( 1) C   6 - H  21  
                ( 48.53%)   0.6966* C   6 s( 24.88%)p 3.02( 75.12%)
                                            0.0000 -0.4988 -0.2956  0.4515 -0.6782
                ( 51.47%)  -0.7174* H  21 s(100.00%)
                                           -1.0000
    64. (0.00924) BD*( 1) C   7 - H  22  
                ( 48.53%)   0.6966* C   7 s( 24.72%)p 3.05( 75.28%)
                                            0.0000 -0.4972 -0.1057  0.4006  0.7624
                ( 51.47%)  -0.7174* H  22 s(100.00%)
                                           -1.0000
    65. (0.00862) BD*( 1) C   7 - H  23  
                ( 48.19%)   0.6942* C   7 s( 25.08%)p 2.99( 74.92%)
                                            0.0000 -0.5008 -0.4384 -0.7463  0.0047
                ( 51.81%)  -0.7198* H  23 s(100.00%)
                                           -1.0000
    66. (0.01063) BD*( 1) O   8 - H  24  
                ( 40.37%)   0.6354* O   8 s( 17.00%)p 4.88( 83.00%)
                                            0.0000  0.4123  0.2777 -0.4541  0.7394
                ( 59.63%)  -0.7722* H  24 s(100.00%)
                                            1.0000
    67. (0.01052) BD*( 1) C   9 - C  10  
                ( 50.76%)   0.7125* C   9 s( 25.55%)p 2.91( 74.45%)
                                            0.0000  0.5055 -0.2314  0.2455  0.7941
                ( 49.24%)  -0.7017* C  10 s( 25.91%)p 2.86( 74.09%)
                                            0.0001  0.5090  0.2846 -0.2564 -0.7708
    68. (0.01004) BD*( 1) C   9 - C  11  
                ( 51.11%)   0.7149* C   9 s( 24.56%)p 3.07( 75.44%)
                                            0.0000  0.4956 -0.4320 -0.7212 -0.2184
                ( 48.89%)  -0.6992* C  11 s( 25.75%)p 2.88( 74.25%)
                                            0.0001  0.5075  0.4570  0.6920  0.2341
    69. (0.01098) BD*( 1) C   9 - H  25  
                ( 48.86%)   0.6990* C   9 s( 24.48%)p 3.08( 75.52%)
                                            0.0000 -0.4948  0.1962 -0.6290  0.5666
                ( 51.14%)  -0.7151* H  25 s(100.00%)
                                           -1.0000
    70. (0.00631) BD*( 1) C  10 - H  26  
                ( 48.28%)   0.6948* C  10 s( 24.74%)p 3.04( 75.26%)
                                            0.0000 -0.4974 -0.1420  0.6220 -0.5878
                ( 51.72%)  -0.7192* H  26 s(100.00%)
                                           -1.0000
    71. (0.00730) BD*( 1) C  10 - H  27  
                ( 47.58%)   0.6898* C  10 s( 24.97%)p 3.00( 75.03%)
                                            0.0000 -0.4997 -0.4122 -0.7224 -0.2419
                ( 52.42%)  -0.7240* H  27 s(100.00%)
                                           -1.0000
    72. (0.00482) BD*( 1) C  10 - H  28  
[...]
 NLMO      Total    Paramagnetic  Diamagnetic   Paramagnetic  Diamagnetic
   10      22.0145        7.7664      14.2482        11.3959      10.6186
   11       1.0539        0.4321       0.6218        -0.2072       1.2611
   21      -0.2755       -0.8708       0.5954        -1.2124       0.9369
   22      29.1617       13.4639      15.6978        14.6280      14.5337
   27      -0.5100       -1.2961       0.7862        -0.8916       0.3816
   39     271.1768       -0.0058     271.1827        -0.0021     271.1789
   43      34.8321        4.7332      30.0988        -2.5870      37.4190
   44       8.1493      -30.6000      38.7493       -31.6496      39.7988
 Sum      365.6028       -6.3773     371.9801       -10.5259     376.1287

 Contributions to Isotropic shielding for atom    9 (   212.7270 ppm):
                         Standard Origin              Atomic Origin
 NLMO      Total    Paramagnetic  Diamagnetic   Paramagnetic  Diamagnetic
   10       0.0108       -0.2884       0.2993        -1.1293       1.1401
   11      -0.1555       -0.4592       0.3037        -1.0191       0.8635
   16       5.5917       -9.6611      15.2529        -2.0296       7.6213
   23      -0.8141       -6.2328       5.4187        -8.4760       7.6619
   24      -1.9683       -4.4262       2.4579        -9.3641       7.3958
   25       5.3779       -1.9932       7.3712        -5.5489      10.9269
   26       0.9120       -0.2502       1.1622        -0.1056       1.0176
   27       0.6137       -0.5914       1.2051        -0.4090       1.0227
   28       0.6146       -0.1740       0.7886        -0.4098       1.0243
   29       1.0485       -0.3507       1.3992         0.0216       1.0269
   30       0.7227       -0.6306       1.3533        -0.2971       1.0198
   31       0.6582       -0.3192       0.9775        -0.3669       1.0252
   40     199.9240       -0.0018     199.9258         0.0024     199.9216
 Sum      212.5363      -25.3789     237.9152       -29.1315     241.6677

 Contributions to Isotropic shielding for atom   10 (   223.5793 ppm):
                         Standard Origin              Atomic Origin
 NLMO      Total    Paramagnetic  Diamagnetic   Paramagnetic  Diamagnetic
   10       0.0130       -0.2192       0.2322        -0.9883       1.0013
   12      -0.1268        0.0266      -0.1534        -1.0181       0.8913
   23       4.1520       -9.3615      13.5134        -3.7216       7.8736
   24      -0.4285        0.0925      -0.5210        -1.1278       0.6992
   25       0.3261       -0.0485       0.3746        -0.6759       1.0020
   26       6.7167       -3.9928      10.7095        -4.3651      11.0818
   27       6.5413       -5.7207      12.2620        -4.7957      11.3370
   28       5.7764        3.7978       1.9786        -5.3045      11.0809
   41     200.0747       -0.0027     200.0774         0.0016     200.0730
 Sum      223.0448      -15.4284     238.4732       -21.9954     245.0402

 Contributions to Isotropic shielding for atom   11 (   220.2348 ppm):
                         Standard Origin              Atomic Origin
 NLMO      Total    Paramagnetic  Diamagnetic   Paramagnetic  Diamagnetic
   17      -0.2629       -0.0460      -0.2170        -1.1974       0.9345
   23      -0.5188        0.1175      -0.6363        -1.2679       0.7491
   24       4.5408      -11.7741      16.3149        -3.5118       8.0526
   25       0.3012        0.1330       0.1682        -0.7405       1.0417
   28      -0.0932       -0.4782       0.3850        -1.0028       0.9096
   29       6.2743       -4.3590      10.6333        -4.8468      11.1211
   30       5.1335       -4.4596       9.5931        -5.9282      11.0618
   31       4.3976        2.4834       1.9142        -6.7170      11.1146
   42     200.0753       -0.0038     200.0791         0.0023     200.0731
 Sum      219.8479      -18.3866     238.2345       -25.2101     245.0580

 Contributions to Isotropic shielding for atom   12 (    32.7101 ppm):
                         Standard Origin              Atomic Origin
 NLMO      Total    Paramagnetic  Diamagnetic   Paramagnetic  Diamagnetic
    1       1.6339       -1.2482       2.8821         0.7476       0.8863
    2      26.3313        0.2729      26.0584         0.4416      25.8897
    3       1.9456        1.8108       0.1347         0.1176       1.8280
    4       1.9465        1.8103       0.1362         0.1190       1.8275
 Sum       31.8572        2.6458      29.2115         1.4258      30.4314

 Contributions to Isotropic shielding for atom   13 (    32.4476 ppm):
                         Standard Origin              Atomic Origin
 NLMO      Total    Paramagnetic  Diamagnetic   Paramagnetic  Diamagnetic
    1       1.4422       -0.6687       2.1109         0.4491       0.9931
    2       1.9135        1.6214       0.2921         0.0707       1.8428
    3      26.3131        0.1547      26.1584         0.4355      25.8777
    4       1.9010        2.2385      -0.3376         0.0597       1.8413
    6      -0.1305        0.7347      -0.8652        -1.0543       0.9238
 Sum       31.4393        4.0806      27.3587        -0.0394      31.4787

 Contributions to Isotropic shielding for atom   14 (    32.4856 ppm):
                         Standard Origin              Atomic Origin
 NLMO      Total    Paramagnetic  Diamagnetic   Paramagnetic  Diamagnetic
    1       1.4472       -0.6806       2.1278         0.4552       0.9920
    2       1.9104        1.6172       0.2932         0.0682       1.8422
    3       1.9074        2.2403      -0.3329         0.0639       1.8435
    4      26.3347        0.1545      26.1802         0.4361      25.8986
    5      -0.1435        0.7319      -0.8753        -1.0522       0.9087
 Sum       31.4562        4.0632      27.3930        -0.0288      31.4850

 Contributions to Isotropic shielding for atom   15 (    33.1511 ppm):
                         Standard Origin              Atomic Origin
 NLMO      Total    Paramagnetic  Diamagnetic   Paramagnetic  Diamagnetic
    1       0.8143        2.1730      -1.3587        -0.1633       0.9777
    3       0.2650       -0.9600       1.2250        -0.6962       0.9612
    4       0.2611       -0.9689       1.2299        -0.7006       0.9617
    5       1.5416        0.2484       1.2932         0.6674       0.8742
    6       1.4790        0.1808       1.2981         0.5824       0.8966
    7      26.5795        0.0667      26.5129         0.3565      26.2231
   10      -0.0642       -0.1198       0.0555        -1.1491       1.0848
 Sum       30.8763        0.6202      30.2561        -1.1030      31.9793

 Contributions to Isotropic shielding for atom   16 (    31.3611 ppm):
                         Standard Origin              Atomic Origin
 NLMO      Total    Paramagnetic  Diamagnetic   Paramagnetic  Diamagnetic
    8       1.0171        0.2675       0.7496         0.0081       1.0090
    9       0.6614        0.8247      -0.1633        -0.3618       1.0232
   10       0.8889        0.9916      -0.1027        -1.1679       2.0568
   11      26.4014        0.3977      26.0037         0.7965      25.6049
   20       0.1812       -0.4101       0.5913        -0.8650       1.0461
   25      -0.1636       -1.0399       0.8764        -0.8993       0.7357
 Sum       28.9865        1.0316      27.9549        -2.4893      31.4759

 Contributions to Isotropic shielding for atom   17 (    32.5779 ppm):
                         Standard Origin              Atomic Origin
 NLMO      Total    Paramagnetic  Diamagnetic   Paramagnetic  Diamagnetic
   12       1.2892        0.5874       0.7019         0.3174       0.9719
   13       1.0646        1.2633      -0.1987         0.0303       1.0343
   14      26.3200        0.0530      26.2670         0.4215      25.8985
   15       2.1181        1.1797       0.9384         0.3809       1.7372
   18       0.2063       -0.3802       0.5865        -0.8045       1.0109
   29      -0.3116       -1.5482       1.2366        -0.8507       0.5391
 Sum       30.6867        1.1550      29.5316        -0.5052      31.1919

 Contributions to Isotropic shielding for atom   18 (    33.2007 ppm):
                         Standard Origin              Atomic Origin
 NLMO      Total    Paramagnetic  Diamagnetic   Paramagnetic  Diamagnetic
   10       0.0020       -0.3126       0.3146        -1.0719       1.0739
   12       1.3124        0.1069       1.2056         0.4180       0.8944
   13       1.1950        0.8463       0.3487         0.2357       0.9593
   14       2.0951        1.3895       0.7056         0.3305       1.7646
   15      26.5404        0.1744      26.3660         0.3858      26.1546
   26      -0.2715       -1.3980       1.1266        -1.0185       0.7470
 Sum       30.8735        0.8065      30.0671        -0.7203      31.5938

 Contributions to Isotropic shielding for atom   19 (    32.8509 ppm):
                         Standard Origin              Atomic Origin
 NLMO      Total    Paramagnetic  Diamagnetic   Paramagnetic  Diamagnetic
    8       1.3961        0.8623       0.5339         0.4310       0.9651
   12       1.2528        0.6807       0.5721         0.2323       1.0205
   16       1.0638        1.3519      -0.2880        -0.0281       1.0919
   17      26.5150        0.0366      26.4784         0.4354      26.0796
   24      -0.0387       -0.8099       0.7713        -1.1185       1.0799
   30      -0.1427       -1.6775       1.5348        -1.0541       0.9113
 Sum       30.0463        0.4440      29.6023        -1.1019      31.1482

 Contributions to Isotropic shielding for atom   20 (    32.8919 ppm):
                         Standard Origin              Atomic Origin
 NLMO      Total    Paramagnetic  Diamagnetic   Paramagnetic  Diamagnetic
    2      -0.0417       -1.3477       1.3060        -0.9384       0.8967
    5       1.1921        0.7845       0.4076         0.3423       0.8498
   13       1.3574        0.0902       1.2672         0.4297       0.9277
   18      26.4455        0.1636      26.2819         0.4435      26.0020
   19       1.9744        1.8404       0.1339         0.2239       1.7504
 Sum       30.9277        1.5311      29.3966         0.5010      30.4266

 Contributions to Isotropic shielding for atom   21 (    32.5240 ppm):
                         Standard Origin              Atomic Origin
 NLMO      Total    Paramagnetic  Diamagnetic   Paramagnetic  Diamagnetic
    4      -0.0838       -1.4635       1.3797        -0.9647       0.8809
    5       1.0195        1.1892      -0.1697         0.0959       0.9236
   13       1.2206        0.5733       0.6473         0.2165       1.0041
   15       0.1855        0.1036       0.0819        -0.8285       1.0140
   18       1.9863        1.5979       0.3884         0.2322       1.7540
   19      26.4515        0.0365      26.4150         0.4793      25.9722
 Sum       30.7795        2.0370      28.7426        -0.7692      31.5488

 Contributions to Isotropic shielding for atom   22 (    32.7079 ppm):
                         Standard Origin              Atomic Origin
 NLMO      Total    Paramagnetic  Diamagnetic   Paramagnetic  Diamagnetic
    2      -0.0426       -1.3568       1.3142        -0.9425       0.9000
    6       1.1652        0.8005       0.3647         0.2876       0.8775
    9       1.4839        0.2485       1.2355         0.6121       0.8718
   11       0.1455       -0.0351       0.1805        -0.8610       1.0065
   20      26.4213        0.1832      26.2381         0.4556      25.9658
   21       1.9312        1.7890       0.1422         0.1700       1.7612
 Sum       31.1045        1.6293      29.4752        -0.2782      31.3828

 Contributions to Isotropic shielding for atom   23 (    32.0616 ppm):
                         Standard Origin              Atomic Origin
 NLMO      Total    Paramagnetic  Diamagnetic   Paramagnetic  Diamagnetic
    3      -0.0838       -1.4695       1.3856        -0.9672       0.8834
    6       0.9803        1.2240      -0.2438        -0.0107       0.9910
    9       1.2464        0.5743       0.6721         0.3097       0.9367
   10      -0.1316        0.1351      -0.2667        -1.5437       1.4121
   20       1.9687        1.5592       0.4095         0.2402       1.7285
   21      26.2584        0.0838      26.1746         0.4947      25.7638
 Sum       30.2384        2.1069      28.1315        -1.4770      31.7154

 Contributions to Isotropic shielding for atom   24 (    34.9213 ppm):
                         Standard Origin              Atomic Origin
 NLMO      Total    Paramagnetic  Diamagnetic   Paramagnetic  Diamagnetic
    7      -0.3456       -1.0769       0.7313        -0.8925       0.5469
   10       2.2220        0.9581       1.2639         1.5866       0.6354
   12      -0.0823       -0.2253       0.1430        -1.0430       0.9607
   22      22.7561       -0.3931      23.1492        -0.3822      23.1383
   27      -0.3081       -1.0419       0.7338        -0.6806       0.3725
   43       3.5530        1.8422       1.7109         1.5951       1.9579
   44       5.2536        2.1766       3.0770         2.0865       3.1670
 Sum       33.0487        2.2396      30.8091         2.2700      30.7788

 Contributions to Isotropic shielding for atom   25 (    32.2485 ppm):
                         Standard Origin              Atomic Origin
 NLMO      Total    Paramagnetic  Diamagnetic   Paramagnetic  Diamagnetic
    8      -0.1768        0.2360      -0.4128        -1.1756       0.9988
   10       0.0302       -0.0978       0.1280        -1.1327       1.1629
   16       1.6788       -0.0846       1.7634         0.6618       1.0170
   23       0.9778        1.5392      -0.5614        -0.0779       1.0557
   24       0.8331        2.0661      -1.2329        -0.1545       0.9876
   25      26.4393       -0.0625      26.5018         0.4421      25.9972
 Sum       29.7825        3.5964      26.1861        -1.4368      31.2192

 Contributions to Isotropic shielding for atom   26 (    32.8587 ppm):
                         Standard Origin              Atomic Origin
 NLMO      Total    Paramagnetic  Diamagnetic   Paramagnetic  Diamagnetic
   12      -0.0889        0.0996      -0.1884        -1.0977       1.0088
   23       1.4676       -0.5539       2.0215         0.5590       0.9086
   24      -0.1277        0.1879      -0.3156        -1.0176       0.8899
   26      26.3761        0.2309      26.1452         0.3779      25.9981
   27       2.1327        0.3994       1.7333         0.2894       1.8432
   28       1.9654        2.1721      -0.2067         0.1192       1.8461
 Sum       31.7251        2.5359      29.1892        -0.7697      32.4948

 Contributions to Isotropic shielding for atom   27 (    32.1583 ppm):
                         Standard Origin              Atomic Origin
 NLMO      Total    Paramagnetic  Diamagnetic   Paramagnetic  Diamagnetic
   22       0.0161       -0.0948       0.1109        -0.9873       1.0033
   23       1.5123       -0.8037       2.3160         0.5176       0.9947
   26       2.0818        0.4376       1.6442         0.2547       1.8271
   27      26.0523        0.3133      25.7390         0.3923      25.6600
   28       1.9259        1.9262      -0.0003         0.0415       1.8845
 Sum       31.5884        1.7785      29.8099         0.2188      31.3696

 Contributions to Isotropic shielding for atom   28 (    32.5384 ppm):
                         Standard Origin              Atomic Origin
 NLMO      Total    Paramagnetic  Diamagnetic   Paramagnetic  Diamagnetic
   23       1.1564        0.8741       0.2823         0.1355       1.0209
   24      -0.1634        0.6309      -0.7943        -1.1568       0.9934
   26       1.9892        1.7922       0.1971         0.1274       1.8619
   27       2.0559        1.5772       0.4787         0.1543       1.9015
   28      26.3378       -0.0540      26.3918         0.4073      25.9305
   31      -0.0993       -1.0247       0.9254        -0.9868       0.8875
 Sum       31.2766        3.7956      27.4810        -1.3191      32.5957

 Contributions to Isotropic shielding for atom   29 (    32.5230 ppm):
                         Standard Origin              Atomic Origin
 NLMO      Total    Paramagnetic  Diamagnetic   Paramagnetic  Diamagnetic
   12      -0.0723        0.2299      -0.3022        -1.0621       0.9898
   23      -0.1326        0.3482      -0.4808        -1.0256       0.8930
   24       1.5649       -1.1097       2.6746         0.6420       0.9229
   29      26.3629        0.2847      26.0782         0.4071      25.9558
   30       1.9839        0.7580       1.2259         0.1758       1.8081
   31       1.8556        2.1070      -0.2514         0.0204       1.8352
 Sum       31.5624        2.6181      28.9443        -0.8424      32.4048

 Contributions to Isotropic shielding for atom   30 (    32.5611 ppm):
                         Standard Origin              Atomic Origin
 NLMO      Total    Paramagnetic  Diamagnetic   Paramagnetic  Diamagnetic
   24       1.6220       -0.8855       2.5075         0.6223       0.9997
   29       2.0321        0.7523       1.2798         0.1957       1.8364
   30      26.4182        0.2860      26.1322         0.4336      25.9846
   31       1.8673        2.2403      -0.3730         0.0148       1.8525
 Sum       31.9396        2.3931      29.5465         1.2664      30.6731

 Contributions to Isotropic shielding for atom   31 (    32.4122 ppm):
                         Standard Origin              Atomic Origin
 NLMO      Total    Paramagnetic  Diamagnetic   Paramagnetic  Diamagnetic
   23      -0.1764        0.7833      -0.9598        -1.1733       0.9968
   24       1.2441        0.3308       0.9133         0.2256       1.0185
   29       1.9489        1.7586       0.1903         0.0979       1.8509
   30       1.8944        1.8975      -0.0031         0.0512       1.8431
   31      26.3770        0.0184      26.3585         0.4682      25.9087
 Sum       31.2879        4.7886      26.4993        -0.3303      31.6182
 
 1\1\GINC-COMPUTE-10-6\SP\RHF\STO-3G\C10H20O1\YTSAI.IQUIR\03-Aug-2021\0
 \\# rhf/STO-3G nmr pop=nbo\\comment\\0,1\C,0,-0.596356189,-2.29390884,
 -2.820353835\C,0,-0.440690171,-1.632891,-1.451026641\C,0,1.25311486,-0
 .641312035,0.187182208\C,0,-1.057793032,0.395477304,-0.053687862\C,0,0
 .428652473,0.666188817,0.242734086\C,0,-1.239962705,-0.325939684,-1.38
 9712828\C,0,1.043225864,-1.384235729,-1.137848124\O,0,0.955466383,-1.5
 18623308,1.267066256\C,0,0.669250088,1.484051437,1.546402827\C,0,-0.08
 5424976,0.98731937,2.782975293\C,0,0.330906622,2.965662896,1.325912598
 \H,0,-0.20993227,-1.652281532,-3.619522794\H,0,-0.05332328,-3.24418722
 5,-2.856404156\H,0,-1.650232323,-2.502027354,-3.033157578\H,0,-0.84907
 1887,-2.324250561,-0.702875407\H,0,2.317591505,-0.395183881,0.27663857
 1\H,0,-1.615853873,1.337607157,-0.087846002\H,0,-1.509312455,-0.211980
 847,0.738778527\H,0,0.806806512,1.283003341,-0.586687312\H,0,-0.928561
 191,0.341169549,-2.203868261\H,0,-2.305734284,-0.534070457,-1.54315118
 6\H,0,1.494356876,-0.79841592,-1.949041066\H,0,1.565910423,-2.34823762
 ,-1.102784394\H,0,0.011900123,-1.744933513,1.234284402\H,0,1.742645867
 ,1.439210769,1.774326316\H,0,-1.169852983,1.068162984,2.657867576\H,0,
 0.156494054,-0.049304351,3.025271791\H,0,0.184752113,1.589121657,3.658
 377457\H,0,-0.736609868,3.114554845,1.135674941\H,0,0.889474811,3.3724
 73529,0.476377819\H,0,0.598162914,3.557780202,2.20809678\\Version=EM64
 L-G09RevC.01\State=1-A\HF=-459.6208426\RMSD=8.983e-09\Dipole=-0.368825
 3,0.1858291,-0.4072733\Quadrupole=0.7143633,0.0002481,-0.7146114,1.873
 2716,-1.6996265,0.7979188\PG=C01 [X(C10H20O1)]\\@


 A BIRD IN THE HAND IS SAFER THAN ONE OVERHEAD.

                       -- NEWTON'S SEVENTH LAW
 Job cpu time:  0 days  0 hours  0 minutes 30.1 seconds.
 File lengths (MBytes):  RWF=      5 Int=      0 D2E=      0 Chk=      1 Scr=      1
 Normal termination of Gaussian 09 at Tue Aug  3 16:37:57 2021.
