 Entering Gaussian System, Link 0=g09
 Input=/home/ytsai.iquir/menthol/04_menthol_M0010_MMFF_NMR_rhf_STO-3G_nbo.gjc
 Output=/home/ytsai.iquir/menthol/04_menthol_M0010_MMFF_NMR_rhf_STO-3G_nbo.log
 Initial command:
 /share/apps/Gaussian09/EM64T.SSE4.2-enabled/g09/l1.exe /tmp/Gau-2638.inp -scrdir=/tmp/
 Entering Link 1 = /share/apps/Gaussian09/EM64T.SSE4.2-enabled/g09/l1.exe PID=      2639.
  
 Copyright (c) 1988,1990,1992,1993,1995,1998,2003,2009,2011,
            Gaussian, Inc.  All Rights Reserved.
  
 This is part of the Gaussian(R) 09 program.  It is based on
 the Gaussian(R) 03 system (copyright 2003, Gaussian, Inc.),
 the Gaussian(R) 98 system (copyright 1998, Gaussian, Inc.),
 the Gaussian(R) 94 system (copyright 1995, Gaussian, Inc.),
 the Gaussian 92(TM) system (copyright 1992, Gaussian, Inc.),
 the Gaussian 90(TM) system (copyright 1990, Gaussian, Inc.),
 the Gaussian 88(TM) system (copyright 1988, Gaussian, Inc.),
 the Gaussian 86(TM) system (copyright 1986, Carnegie Mellon
 University), and the Gaussian 82(TM) system (copyright 1983,
 Carnegie Mellon University). Gaussian is a federally registered
 trademark of Gaussian, Inc.
  
 This software contains proprietary and confidential information,
 including trade secrets, belonging to Gaussian, Inc.
  
 This software is provided under written license and may be
 used, copied, transmitted, or stored only in accord with that
 written license.
  
 The following legend is applicable only to US Government
 contracts under FAR:
  
                    RESTRICTED RIGHTS LEGEND
  
 Use, reproduction and disclosure by the US Government is
 subject to restrictions as set forth in subparagraphs (a)
 and (c) of the Commercial Computer Software - Restricted
 Rights clause in FAR 52.227-19.
  
 Gaussian, Inc.
 340 Quinnipiac St., Bldg. 40, Wallingford CT 06492
  
  
 ---------------------------------------------------------------
 Warning -- This program may not be used in any manner that
 competes with the business of Gaussian, Inc. or will provide
 assistance to any competitor of Gaussian, Inc.  The licensee
 of this program is prohibited from giving any competitor of
 Gaussian, Inc. access to this program.  By using this program,
 the user acknowledges that Gaussian, Inc. is engaged in the
 business of creating and licensing software in the field of
 computational chemistry and represents and warrants to the
 licensee that it is not a competitor of Gaussian, Inc. and that
 it will not use this program in any manner prohibited above.
 ---------------------------------------------------------------
  

 Cite this work as:
 Gaussian 09, Revision C.01,
 M. J. Frisch, G. W. Trucks, H. B. Schlegel, G. E. Scuseria, 
 M. A. Robb, J. R. Cheeseman, G. Scalmani, V. Barone, B. Mennucci, 
 G. A. Petersson, H. Nakatsuji, M. Caricato, X. Li, H. P. Hratchian, 
 A. F. Izmaylov, J. Bloino, G. Zheng, J. L. Sonnenberg, M. Hada, 
 M. Ehara, K. Toyota, R. Fukuda, J. Hasegawa, M. Ishida, T. Nakajima, 
 Y. Honda, O. Kitao, H. Nakai, T. Vreven, J. A. Montgomery, Jr., 
 J. E. Peralta, F. Ogliaro, M. Bearpark, J. J. Heyd, E. Brothers, 
 K. N. Kudin, V. N. Staroverov, T. Keith, R. Kobayashi, J. Normand, 
 K. Raghavachari, A. Rendell, J. C. Burant, S. S. Iyengar, J. Tomasi, 
 M. Cossi, N. Rega, J. M. Millam, M. Klene, J. E. Knox, J. B. Cross, 
 V. Bakken, C. Adamo, J. Jaramillo, R. Gomperts, R. E. Stratmann, 
 O. Yazyev, A. J. Austin, R. Cammi, C. Pomelli, J. W. Ochterski, 
 R. L. Martin, K. Morokuma, V. G. Zakrzewski, G. A. Voth, 
 P. Salvador, J. J. Dannenberg, S. Dapprich, A. D. Daniels, 
 O. Farkas, J. B. Foresman, J. V. Ortiz, J. Cioslowski, 
 and D. J. Fox, Gaussian, Inc., Wallingford CT, 2010.
 
 ******************************************
 Gaussian 09:  EM64L-G09RevC.01 23-Sep-2011
                 3-Aug-2021 
 ******************************************
 %nprocshared=4
 Will use up to    4 processors via shared memory.
 ------------------------
 # rhf/STO-3G nmr pop=nbo
 ------------------------
 1/38=1/1;
 2/12=2,17=6,18=5,40=1/2;
 3/6=3,11=1,16=1,25=1,30=1,116=1/1,2,8,3;
 4//1;
 5/5=2,38=5/2;
 8/6=1,10=90,11=11/1;
 10/13=100,45=16/2;
 6/7=2,8=2,9=2,10=2,28=1,64=1/1,7;
 99/9=1/99;
 -------
 comment
 -------
 Charge =  0 Multiplicity = 1
 Symbolic Z-Matrix:
 6                    -0.97332  -2.06609  -2.89533 
 6                    -0.78566  -1.43117  -1.51825 
 6                     0.93637  -0.54077   0.13753 
 6                    -1.31732   0.5934   -0.08537 
 6                     0.18323   0.80577   0.19764 
 6                    -1.54041  -0.09918  -1.43021 
 6                     0.7076   -1.23512  -1.21165 
 8                     0.49917  -1.40844   1.17847 
 6                     0.40902   1.65249   1.48502 
 6                     1.88547   2.02285   1.66495 
 6                    -0.12509   1.04475   2.78403 
 1                    -0.57069  -1.42621  -3.68787 
 1                    -0.46326  -3.03362  -2.9493 
 1                    -2.03512  -2.23509  -3.10327 
 1                    -1.20916  -2.11822  -0.7738 
 1                     2.01118  -0.37972   0.27048 
 1                    -1.8365    1.55916  -0.09287 
 1                    -1.78001  -0.0123    0.70205 
 1                     0.57204   1.41607  -0.63193 
 1                    -1.21509   0.56925  -2.23776 
 1                    -2.61422  -0.26891  -1.57418 
 1                     1.17524  -0.64051  -2.00672 
 1                     1.20009  -2.21553  -1.20731 
 1                     1.01385  -2.2307    1.11256 
 1                    -0.13302   2.59701   1.33566 
 1                     2.4945    1.15078   1.9231 
 1                     2.29204   2.46866   0.75125 
 1                     2.00158   2.75612   2.47067 
 1                     0.43969   0.15865   3.08664 
 1                    -1.18162   0.77571   2.70485 
 1                    -0.04057   1.77089   3.60091 
 
                          Input orientation:                          
 ---------------------------------------------------------------------
 Center     Atomic      Atomic             Coordinates (Angstroms)
 Number     Number       Type             X           Y           Z
 ---------------------------------------------------------------------
      1          6           0       -0.973324   -2.066086   -2.895334
      2          6           0       -0.785661   -1.431173   -1.518252
      3          6           0        0.936372   -0.540771    0.137530
      4          6           0       -1.317325    0.593396   -0.085367
      5          6           0        0.183232    0.805771    0.197642
      6          6           0       -1.540412   -0.099176   -1.430215
      7          6           0        0.707595   -1.235121   -1.211649
      8          8           0        0.499170   -1.408436    1.178468
      9          6           0        0.409022    1.652492    1.485024
     10          6           0        1.885474    2.022854    1.664954
     11          6           0       -0.125091    1.044751    2.784031
     12          1           0       -0.570687   -1.426208   -3.687865
     13          1           0       -0.463261   -3.033617   -2.949296
     14          1           0       -2.035124   -2.235092   -3.103272
     15          1           0       -1.209158   -2.118217   -0.773797
     16          1           0        2.011183   -0.379716    0.270477
     17          1           0       -1.836499    1.559160   -0.092872
     18          1           0       -1.780014   -0.012304    0.702048
     19          1           0        0.572038    1.416072   -0.631931
     20          1           0       -1.215091    0.569245   -2.237759
     21          1           0       -2.614221   -0.268906   -1.574183
     22          1           0        1.175238   -0.640508   -2.006720
     23          1           0        1.200093   -2.215527   -1.207312
     24          1           0        1.013851   -2.230702    1.112558
     25          1           0       -0.133018    2.597009    1.335662
     26          1           0        2.494499    1.150775    1.923102
     27          1           0        2.292036    2.468658    0.751247
     28          1           0        2.001575    2.756119    2.470673
     29          1           0        0.439692    0.158652    3.086639
     30          1           0       -1.181615    0.775709    2.704854
     31          1           0       -0.040571    1.770895    3.600914
 ---------------------------------------------------------------------
                    Distance matrix (angstroms):
                    1          2          3          4          5
     1  C    0.000000
     2  C    1.527968   0.000000
     3  C    3.895098   2.549475   0.000000
     4  C    3.884211   2.536672   2.532817   0.000000
     5  C    4.376264   2.981102   1.544023   1.541709   0.000000
     6  C    2.517319   1.533498   2.964336   1.529065   2.537676
     7  C    2.520077   1.536963   1.534518   2.951658   2.535015
     8  O    4.381393   2.987240   1.423917   2.984001   2.442243
     9  C    5.909842   4.467205   2.627592   2.562828   1.557327
    10  C    6.759318   5.403524   3.131452   3.919808   2.555763
    11  C    6.530850   5.007614   3.262599   3.139840   2.615642
    12  H    1.095293   2.180243   4.205814   4.196934   4.543929
    13  H    1.095076   2.172477   4.207345   4.699652   5.006204
    14  H    1.095090   2.172495   4.712039   4.198015   5.006395
    15  H    2.135242   1.097995   2.814632   2.799728   3.381146
    16  H    4.666206   3.482448   1.094912   3.486048   2.179929
    17  H    4.662754   3.475350   3.485915   1.096494   2.175156
    18  H    4.220181   2.816320   2.824307   1.095891   2.185865
    19  H    4.431316   3.276541   2.134020   2.131952   1.100831
    20  H    2.726871   2.168819   3.391596   2.154953   2.818232
    21  H    2.769086   2.167401   3.951023   2.154548   3.481385
    22  H    2.727311   2.169995   2.159818   3.380382   2.816916
    23  H    2.755992   2.157571   2.164014   3.935251   3.483697
    24  H    4.476512   3.286129   1.952575   3.852912   3.278287
    25  H    6.352314   4.979660   3.524879   2.726971   2.145608
    26  H    6.752134   5.410067   2.911590   4.344493   2.904857
    27  H    6.672633   5.461825   3.357252   4.152592   2.742030
    28  H    7.803699   6.419784   4.177044   4.714426   3.503840
    29  H    6.536825   5.023351   3.071340   3.652087   2.971673
    30  H    6.283414   4.781395   3.579126   2.799463   2.854789
    31  H    7.602216   6.083934   4.277060   4.074957   3.544546
                    6          7          8          9         10
     6  C    0.000000
     7  C    2.528177   0.000000
     8  O    3.560798   2.405439   0.000000
     9  C    3.920109   3.962259   3.077561   0.000000
    10  C    5.081317   4.502959   3.732595   1.532793   0.000000
    11  C    4.590379   4.675109   2.997610   1.530374   2.500278
    12  H    2.792555   2.793236   4.982580   6.098935   6.825059
    13  H    3.475457   2.761324   4.539374   6.510276   7.237110
    14  H    2.757897   3.478605   5.043739   6.491504   7.499145
    15  H    2.148753   2.155346   2.689518   4.683911   5.716006
    16  H    3.947769   2.151221   2.041787   2.858656   2.780776
    17  H    2.150868   3.941076   3.984756   2.746057   4.142228
    18  H    2.147441   3.368341   2.714930   2.859454   4.301728
    19  H    2.719500   2.717218   3.355697   2.136344   2.714587
    20  H    1.097611   2.829374   4.303547   4.203603   5.192076
    21  H    1.096631   3.478429   4.309155   4.710681   5.999286
    22  H    2.828455   1.097448   3.345475   4.247024   4.591201
    23  H    3.469726   1.097164   2.614313   4.778706   5.165611
    24  H    4.187285   2.546942   0.972297   3.947625   4.376940
    25  H    4.110991   4.677674   4.058073   1.099194   2.124240
    26  H    5.393294   4.325759   3.329472   2.189257   1.094565
    27  H    5.102961   4.481227   4.292872   2.179518   1.094941
    28  H    5.992939   5.582461   4.611999   2.173873   1.095600
    29  H    4.938548   4.526550   2.469904   2.190358   2.754400
    30  H    4.241811   4.790778   3.150458   2.187889   3.470418
    31  H    5.573055   5.723342   4.033325   2.166366   2.742458
                   11         12         13         14         15
    11  C    0.000000
    12  H    6.941876   0.000000
    13  H    7.044039   1.772227   0.000000
    14  H    7.004709   1.772179   1.769775   0.000000
    15  H    4.882388   3.062404   2.475302   2.474335   0.000000
    16  H    3.593150   4.840420   4.851082   5.585445   3.805718
    17  H    3.386755   4.841350   5.580192   4.847506   3.792139
    18  H    2.861956   4.767907   4.918789   4.414332   2.634172
    19  H    3.506090   4.327021   5.122671   5.122092   3.960301
    20  H    5.160677   2.549489   3.748619   3.047273   3.060339
    21  H    5.188015   3.159593   3.763136   2.557216   2.456577
    22  H    5.242352   2.547907   3.049607   3.748540   3.064159
    23  H    5.321311   3.148306   2.543723   3.749890   2.449876
    24  H    3.849624   5.118792   4.396042   5.202834   2.917662
    25  H    2.123050   6.450864   7.083352   6.831643   5.276480
    26  H    2.759473   6.893414   7.070908   7.566110   5.628201
    27  H    3.464423   6.562841   7.180579   7.463706   5.968546
    28  H    2.747668   7.876293   8.304970   8.501529   6.677915
    29  H    1.093491   7.030402   6.887556   7.083059   4.775543
    30  H    1.093113   6.788854   6.855393   6.597555   4.525106
    31  H    1.096232   7.976766   8.134326   8.060539   5.968993
                   16         17         18         19         20
    16  H    0.000000
    17  H    4.323877   0.000000
    18  H    3.833330   1.761984   0.000000
    19  H    2.471909   2.472267   3.058089   0.000000
    20  H    4.195308   2.442666   3.049558   2.547475   0.000000
    21  H    4.980904   2.478096   2.437822   3.725485   1.760794
    22  H    2.439762   4.191886   4.057780   2.546256   2.688969
    23  H    2.492374   4.971029   4.169039   3.730152   3.827517
    24  H    2.264933   4.892914   3.591029   4.066620   4.902296
    25  H    3.820092   2.453505   3.150012   2.400653   4.248770
    26  H    2.303730   4.794629   4.595127   3.208494   5.604641
    27  H    2.902285   4.310977   4.768563   2.445304   4.984162
    28  H    3.830721   4.768153   5.009254   3.669530   6.107266
    29  H    3.269587   4.153524   3.262300   3.927644   5.590716
    30  H    4.177937   2.978245   2.233893   3.823545   4.947037
    31  H    4.463926   4.112693   3.822157   4.291639   6.075653
                   21         22         23         24         25
    21  H    0.000000
    22  H    3.832124   0.000000
    23  H    4.298013   1.766454   0.000000
    24  H    4.922410   3.504947   2.327383   0.000000
    25  H    4.778811   4.833690   5.603963   4.967079   0.000000
    26  H    6.351812   4.515822   4.775664   3.779377   3.056226
    27  H    6.080563   4.303549   5.193254   4.883471   2.497779
    28  H    6.842311   5.680401   6.235961   5.261983   2.422819
    29  H    5.588601   5.207878   4.965174   3.152090   3.056059
    30  H    4.631819   5.455214   5.470381   4.048949   2.508261
    31  H    6.129119   6.224035   6.367876   4.828716   2.412960
                   26         27         28         29         30
    26  H    0.000000
    27  H    1.775120   0.000000
    28  H    1.766334   1.767322   0.000000
    29  H    2.561320   3.771122   3.092851   0.000000
    30  H    3.776987   4.330001   3.756270   1.776276   0.000000
    31  H    3.102609   3.748137   2.533471   1.759107   1.759346
                   31
    31  H    0.000000
 Stoichiometry    C10H20O
 Framework group  C1[X(C10H20O)]
 Deg. of freedom    87
 Full point group                 C1      NOp   1
 Largest Abelian subgroup         C1      NOp   1
 Largest concise Abelian subgroup C1      NOp   1
                         Standard orientation:                         
 ---------------------------------------------------------------------
 Center     Atomic      Atomic             Coordinates (Angstroms)
 Number     Number       Type             X           Y           Z
 ---------------------------------------------------------------------
      1          6           0       -3.680870   -0.056770   -0.176045
      2          6           0       -2.206897    0.006612    0.221536
      3          6           0        0.090011   -1.032439   -0.158481
      4          6           0       -0.128521    1.460913    0.229592
      5          6           0        0.663309    0.359268   -0.502700
      6          6           0       -1.620729    1.387633   -0.095961
      7          6           0       -1.408255   -1.101732   -0.482737
      8          8           0        0.272963   -1.324012    1.223205
      9          6           0        2.198510    0.528793   -0.303481
     10          6           0        2.992218   -0.447556   -1.178824
     11          6           0        2.696713    0.437888    1.140671
     12          1           0       -3.810650    0.097399   -1.252639
     13          1           0       -4.110521   -1.030730    0.080849
     14          1           0       -4.257593    0.712554    0.348124
     15          1           0       -2.146932   -0.153229    1.306178
     16          1           0        0.608436   -1.807889   -0.731844
     17          1           0        0.250018    2.448409   -0.059994
     18          1           0       -0.001711    1.375435    1.314760
     19          1           0        0.484211    0.511298   -1.578172
     20          1           0       -1.769494    1.622062   -1.157875
     21          1           0       -2.152207    2.158449    0.474980
     22          1           0       -1.545681   -1.025866   -1.568900
     23          1           0       -1.805529   -2.076318   -0.172696
     24          1           0       -0.083025   -2.213958    1.386389
     25          1           0        2.448904    1.538792   -0.657645
     26          1           0        2.886564   -1.480821   -0.833464
     27          1           0        2.661420   -0.397297   -2.221389
     28          1           0        4.059435   -0.200650   -1.158229
     29          1           0        2.604048   -0.573805    1.545163
     30          1           0        2.164696    1.128245    1.800414
     31          1           0        3.758969    0.704362    1.188928
 ---------------------------------------------------------------------
 Rotational constants (GHZ):      2.0592216      0.6629320      0.6161261
 Standard basis: STO-3G (5D, 7F)
 There are    75 symmetry adapted basis functions of A   symmetry.
 Integral buffers will be    131072 words long.
 Raffenetti 1 integral format.
 Two-electron integral symmetry is turned on.
    75 basis functions,   225 primitive gaussians,    75 cartesian basis functions
    44 alpha electrons       44 beta electrons
       nuclear repulsion energy       696.1487793660 Hartrees.
 NAtoms=   31 NActive=   31 NUniq=   31 SFac= 1.00D+00 NAtFMM=   60 NAOKFM=F Big=F
 One-electron integrals computed using PRISM.
 NBasis=    75 RedAO= T  NBF=    75
 NBsUse=    75 1.00D-06 NBFU=    75
 Harris functional with IExCor=  205 diagonalized for initial guess.
 ExpMin= 1.69D-01 ExpMax= 1.31D+02 ExpMxC= 1.31D+02 IAcc=1 IRadAn=         1 AccDes= 0.00D+00
 HarFok:  IExCor=  205 AccDes= 0.00D+00 IRadAn=         1 IDoV= 1
 ScaDFX=  1.000000  1.000000  1.000000  1.000000
 FoFCou: FMM=F IPFlag=           0 FMFlag=      100000 FMFlg1=           0
         NFxFlg=           0 DoJE=T BraDBF=F KetDBF=T FulRan=T
         Omega=  0.000000  0.000000  1.000000  0.000000  0.000000 ICntrl=     500 IOpCl=  0
         NMat0=    1 NMatS0=    1 NMatT0=    0 NMatD0=    1 NMtDS0=    0 NMtDT0=    0
         I1Cent=           4 NGrid=           0.
 Petite list used in FoFCou.
 Initial guess orbital symmetries:
       Occupied  (A) (A) (A) (A) (A) (A) (A) (A) (A) (A) (A) (A)
                 (A) (A) (A) (A) (A) (A) (A) (A) (A) (A) (A) (A)
                 (A) (A) (A) (A) (A) (A) (A) (A) (A) (A) (A) (A)
                 (A) (A) (A) (A) (A) (A) (A) (A)
       Virtual   (A) (A) (A) (A) (A) (A) (A) (A) (A) (A) (A) (A)
                 (A) (A) (A) (A) (A) (A) (A) (A) (A) (A) (A) (A)
                 (A) (A) (A) (A) (A) (A) (A)
 The electronic state of the initial guess is 1-A.
 Requested convergence on RMS density matrix=1.00D-08 within 128 cycles.
 Requested convergence on MAX density matrix=1.00D-06.
 Requested convergence on             energy=1.00D-06.
 No special actions if energy rises.
 Keep R1 ints in memory in canonical form, NReq=4898789.
 SCF Done:  E(RHF) =  -459.622118555     A.U. after   10 cycles
             Convg  =    0.6324D-08             -V/T =  2.0090
 Range of M.O.s used for correlation:     1    75
 NBasis=    75 NAE=    44 NBE=    44 NFC=     0 NFV=     0
 NROrb=     75 NOA=    44 NOB=    44 NVA=    31 NVB=    31
          Differentiating once with respect to magnetic field using GIAOs.
          Electric field/nuclear overlap derivatives assumed to be zero.
          Keep R3 ints in memory in canonical form, NReq=4863575.
 FoFCou: FMM=F IPFlag=           0 FMFlag=           0 FMFlg1=           0
         NFxFlg=           0 DoJE=F BraDBF=F KetDBF=T FulRan=T
         Omega=  0.000000  0.000000  1.000000  0.000000  0.000000 ICntrl=    6100 IOpCl=  0
         NMat0=    1 NMatS0=    1 NMatT0=    0 NMatD0=    1 NMtDS0=    0 NMtDT0=    0
         I1Cent=           7 NGrid=          31.
 Symmetry not used in FoFCou.
          There are     3 degrees of freedom in the 1st order CPHF.  IDoFFX=0.
      3 vectors produced by pass  0 Test12= 4.55D-14 3.33D-08 XBig12= 7.43D+00 4.59D-01.
 AX will form     3 AO Fock derivatives at one time.
      3 vectors produced by pass  1 Test12= 4.55D-14 3.33D-08 XBig12= 1.05D-02 1.47D-02.
      3 vectors produced by pass  2 Test12= 4.55D-14 3.33D-08 XBig12= 7.78D-05 2.18D-03.
      3 vectors produced by pass  3 Test12= 4.55D-14 3.33D-08 XBig12= 2.15D-06 4.73D-04.
      3 vectors produced by pass  4 Test12= 4.55D-14 3.33D-08 XBig12= 2.25D-08 3.49D-05.
      3 vectors produced by pass  5 Test12= 4.55D-14 3.33D-08 XBig12= 2.79D-10 2.30D-06.
      3 vectors produced by pass  6 Test12= 4.55D-14 3.33D-08 XBig12= 2.24D-12 1.71D-07.
 Inverted reduced A of dimension    21 with in-core refinement.
 Calculating GIAO nuclear magnetic shielding tensors.
 SCF GIAO Magnetic shielding tensor (ppm):
      1  C    Isotropic =   221.0592   Anisotropy =    28.3228
   XX=   239.2259   YX=     1.4697   ZX=     2.4840
   XY=     1.3473   YY=   212.1968   ZY=     0.2122
   XZ=     5.9904   YZ=     0.6384   ZZ=   211.7548
   Eigenvalues:   211.0738   212.1626   239.9411
      2  C    Isotropic =   215.9180   Anisotropy =     8.3266
   XX=   220.7500   YX=     0.3369   ZX=    -0.6449
   XY=     2.4709   YY=   218.1333   ZY=     1.0473
   XZ=     2.2653   YZ=     1.0616   ZZ=   208.8706
   Eigenvalues:   208.7165   217.5684   221.4691
      3  C    Isotropic =   189.9725   Anisotropy =    36.8205
   XX=   180.4581   YX=     3.9335   ZX=     5.4887
   XY=     3.5367   YY=   179.0113   ZY=   -11.1582
   XZ=     3.8287   YZ=   -11.8214   ZZ=   210.4481
   Eigenvalues:   172.1571   183.2410   214.5196
      4  C    Isotropic =   217.2065   Anisotropy =    15.8699
   XX=   226.3531   YX=    -1.5376   ZX=    -0.8342
   XY=    -3.8192   YY=   218.7238   ZY=     5.0064
   XZ=    -3.8266   YZ=     3.1154   ZZ=   206.5426
   Eigenvalues:   205.2095   218.6237   227.7864
      5  C    Isotropic =   209.3408   Anisotropy =    15.3692
   XX=   219.2822   YX=    -2.4411   ZX=     0.0078
   XY=    -0.7662   YY=   205.5295   ZY=    -0.7003
   XZ=     2.8726   YZ=     1.1945   ZZ=   203.2107
   Eigenvalues:   203.0188   205.4166   219.5869
      6  C    Isotropic =   215.1617   Anisotropy =    16.6853
   XX=   221.6348   YX=     4.1100   ZX=     2.6182
   XY=     8.4982   YY=   217.7393   ZY=    -2.6560
   XZ=     0.1285   YZ=    -1.1592   ZZ=   206.1111
   Eigenvalues:   205.3932   213.8067   226.2852
      7  C    Isotropic =   212.6870   Anisotropy =    19.6092
   XX=   223.8917   YX=    -3.6885   ZX=     5.8557
   XY=    -6.4648   YY=   210.9143   ZY=     0.5505
   XZ=    -1.7712   YZ=     1.3251   ZZ=   203.2550
   Eigenvalues:   202.7632   209.5381   225.7598
      8  O    Isotropic =   357.7492   Anisotropy =    98.3840
   XX=   350.1308   YX=    33.3003   ZX=   -11.5366
   XY=    35.5770   YY=   404.3344   ZY=   -26.5784
   XZ=     8.6106   YZ=    -6.2810   ZZ=   318.7823
   Eigenvalues:   314.7102   335.1988   423.3385
      9  C    Isotropic =   212.5251   Anisotropy =    17.6588
   XX=   224.2307   YX=     0.5063   ZX=    -2.6409
   XY=     0.2443   YY=   205.5483   ZY=     2.0344
   XZ=     0.6008   YZ=     1.3318   ZZ=   207.7964
   Eigenvalues:   204.6146   208.6631   224.2977
     10  C    Isotropic =   221.2544   Anisotropy =    25.7913
   XX=   221.6197   YX=    -7.2903   ZX=    -8.7326
   XY=    -9.1941   YY=   217.1353   ZY=    11.2418
   XZ=    -5.6329   YZ=     8.4985   ZZ=   225.0082
   Eigenvalues:   209.3692   215.9455   238.4486
     11  C    Isotropic =   223.5080   Anisotropy =    21.1487
   XX=   220.5229   YX=     1.5542   ZX=     7.5565
   XY=     1.1669   YY=   214.8829   ZY=    -1.1581
   XZ=     5.4204   YZ=     1.6231   ZZ=   235.1180
   Eigenvalues:   214.4676   218.4491   237.6071
     12  H    Isotropic =    32.7092   Anisotropy =    11.6655
   XX=    33.5844   YX=    -0.4097   ZX=     4.7170
   XY=    -0.2368   YY=    27.4775   ZY=    -1.1219
   XZ=     4.7863   YZ=    -1.2172   ZZ=    37.0657
   Eigenvalues:    27.3216    30.3198    40.4862
     13  H    Isotropic =    32.5204   Anisotropy =    13.5777
   XX=    35.8784   YX=     5.7992   ZX=    -1.3538
   XY=     5.7605   YY=    35.0198   ZY=    -1.9894
   XZ=    -1.1624   YZ=    -1.7885   ZZ=    26.6628
   Eigenvalues:    26.2557    29.7332    41.5722
     14  H    Isotropic =    32.4046   Anisotropy =    13.9275
   XX=    37.4570   YX=    -5.0049   ZX=    -3.5511
   XY=    -4.6045   YY=    31.5335   ZY=     3.3211
   XZ=    -3.2588   YZ=     3.1527   ZZ=    28.2232
   Eigenvalues:    26.2186    29.3055    41.6896
     15  H    Isotropic =    32.3962   Anisotropy =    10.0554
   XX=    31.4815   YX=    -0.6214   ZX=    -1.3733
   XY=    -0.1150   YY=    27.1519   ZY=    -2.0060
   XZ=    -1.3678   YZ=    -1.8973   ZZ=    38.5553
   Eigenvalues:    26.7518    31.3371    39.0998
     16  H    Isotropic =    31.9301   Anisotropy =     9.9576
   XX=    33.0976   YX=    -1.8765   ZX=    -2.4456
   XY=    -2.3436   YY=    33.8888   ZY=     4.1183
   XZ=    -3.8545   YZ=     4.5400   ZZ=    28.8040
   Eigenvalues:    25.8629    31.3590    38.5685
     17  H    Isotropic =    32.4882   Anisotropy =    13.4993
   XX=    32.0870   YX=     2.7876   ZX=    -0.6876
   XY=     2.9217   YY=    40.4398   ZY=    -1.3570
   XZ=    -0.6457   YZ=    -1.6950   ZZ=    24.9378
   Eigenvalues:    24.7670    31.2099    41.4877
     18  H    Isotropic =    32.1000   Anisotropy =     9.4957
   XX=    31.2736   YX=    -0.9826   ZX=     2.0900
   XY=    -0.5482   YY=    28.1347   ZY=     3.1056
   XZ=     2.1239   YZ=     3.4712   ZZ=    36.8916
   Eigenvalues:    26.5969    31.2725    38.4305
     19  H    Isotropic =    32.7579   Anisotropy =     9.5499
   XX=    32.7775   YX=    -0.4244   ZX=     0.5018
   XY=    -0.2852   YY=    26.8248   ZY=    -2.0276
   XZ=    -0.0430   YZ=    -2.6216   ZZ=    38.6713
   Eigenvalues:    26.3704    32.7787    39.1245
     20  H    Isotropic =    32.7892   Anisotropy =    11.2562
   XX=    31.6095   YX=    -0.8903   ZX=     2.9878
   XY=    -0.8483   YY=    31.0544   ZY=    -5.1767
   XZ=     2.9816   YZ=    -5.6478   ZZ=    35.7036
   Eigenvalues:    27.2567    30.8175    40.2933
     21  H    Isotropic =    32.2964   Anisotropy =    14.2041
   XX=    33.1527   YX=    -4.5907   ZX=    -2.5661
   XY=    -4.4689   YY=    36.5875   ZY=     4.7347
   XZ=    -2.6320   YZ=     4.9694   ZZ=    27.1489
   Eigenvalues:    25.0346    30.0888    41.7658
     22  H    Isotropic =    32.7320   Anisotropy =    10.9028
   XX=    31.6087   YX=     0.0621   ZX=     2.6225
   XY=     0.2681   YY=    28.1254   ZY=     2.7827
   XZ=     2.5616   YZ=     3.0354   ZZ=    38.4619
   Eigenvalues:    27.2973    30.8983    40.0005
     23  H    Isotropic =    32.8170   Anisotropy =    12.6057
   XX=    32.6715   YX=     3.3199   ZX=    -0.3083
   XY=     3.7286   YY=    39.6650   ZY=    -0.8910
   XZ=    -0.1148   YZ=    -1.4291   ZZ=    26.1145
   Eigenvalues:    26.0146    31.2156    41.2207
     24  H    Isotropic =    35.2412   Anisotropy =    19.4546
   XX=    29.2592   YX=     5.0957   ZX=     0.3029
   XY=     4.3613   YY=    42.9838   ZY=    -8.5589
   XZ=     0.5235   YZ=    -7.0852   ZZ=    33.4808
   Eigenvalues:    26.1163    31.3964    48.2109
     25  H    Isotropic =    32.4231   Anisotropy =    12.4935
   XX=    31.6117   YX=     3.6254   ZX=    -1.9149
   XY=     3.3917   YY=    37.5907   ZY=    -4.0097
   XZ=    -1.9047   YZ=    -3.9676   ZZ=    28.0669
   Eigenvalues:    26.5245    29.9927    40.7520
     26  H    Isotropic =    32.4215   Anisotropy =     9.4512
   XX=    31.1645   YX=    -1.8160   ZX=    -1.8083
   XY=    -2.0405   YY=    38.2253   ZY=    -0.1654
   XZ=    -2.0377   YZ=    -0.3598   ZZ=    27.8746
   Eigenvalues:    26.8880    31.6542    38.7223
     27  H    Isotropic =    32.5861   Anisotropy =    12.4039
   XX=    30.4860   YX=    -0.9845   ZX=    -0.9135
   XY=    -0.8551   YY=    26.7109   ZY=     1.9224
   XZ=    -0.8817   YZ=     1.4052   ZZ=    40.5616
   Eigenvalues:    26.3532    30.5498    40.8554
     28  H    Isotropic =    32.3653   Anisotropy =    14.6646
   XX=    41.4714   YX=     0.7046   ZX=    -2.9920
   XY=     0.3046   YY=    26.9211   ZY=     1.0854
   XZ=    -2.9905   YZ=     1.1165   ZZ=    28.7033
   Eigenvalues:    26.1671    28.7870    42.1417
     29  H    Isotropic =    32.1599   Anisotropy =     9.4236
   XX=    30.4929   YX=     0.8655   ZX=     2.4362
   XY=     0.5547   YY=    33.9313   ZY=    -5.2117
   XZ=     2.5415   YZ=    -5.2210   ZZ=    32.0553
   Eigenvalues:    26.3221    31.7152    38.4423
     30  H    Isotropic =    32.3110   Anisotropy =    10.5958
   XX=    31.7030   YX=    -1.9478   ZX=     0.2831
   XY=    -1.8142   YY=    30.1096   ZY=     5.9266
   XZ=    -0.0631   YZ=     6.3656   ZZ=    35.1202
   Eigenvalues:    25.5457    32.0124    39.3748
     31  H    Isotropic =    32.5741   Anisotropy =    14.9879
   XX=    40.3022   YX=     3.4866   ZX=     3.9441
   XY=     3.3820   YY=    27.2443   ZY=     1.4718
   XZ=     3.9575   YZ=     1.4496   ZZ=    30.1756
   Eigenvalues:    26.3135    28.8426    42.5660
 End of Minotr Frequency-dependent properties file   721 does not exist.
 End of Minotr Frequency-dependent properties file   722 does not exist.

 **********************************************************************

            Population analysis using the SCF density.

 **********************************************************************

 Orbital symmetries:
       Occupied  (A) (A) (A) (A) (A) (A) (A) (A) (A) (A) (A) (A)
                 (A) (A) (A) (A) (A) (A) (A) (A) (A) (A) (A) (A)
                 (A) (A) (A) (A) (A) (A) (A) (A) (A) (A) (A) (A)
                 (A) (A) (A) (A) (A) (A) (A) (A)
       Virtual   (A) (A) (A) (A) (A) (A) (A) (A) (A) (A) (A) (A)
                 (A) (A) (A) (A) (A) (A) (A) (A) (A) (A) (A) (A)
                 (A) (A) (A) (A) (A) (A) (A)
 The electronic state is 1-A.
 Alpha  occ. eigenvalues --  -20.23736 -11.08524 -11.04347 -11.04272 -11.04186
 Alpha  occ. eigenvalues --  -11.03748 -11.03214 -11.03042 -11.02993 -11.02635
 Alpha  occ. eigenvalues --  -11.01826  -1.27963  -1.07647  -1.03334  -0.96623
 Alpha  occ. eigenvalues --   -0.94940  -0.88106  -0.87589  -0.79170  -0.77968
 Alpha  occ. eigenvalues --   -0.73050  -0.69221  -0.62270  -0.60376  -0.58315
 Alpha  occ. eigenvalues --   -0.57312  -0.56481  -0.54020  -0.53417  -0.52249
 Alpha  occ. eigenvalues --   -0.51091  -0.49867  -0.49012  -0.47804  -0.46249
 Alpha  occ. eigenvalues --   -0.44847  -0.43607  -0.42868  -0.42158  -0.40502
 Alpha  occ. eigenvalues --   -0.39844  -0.38178  -0.36040  -0.33027
 Alpha virt. eigenvalues --    0.53055   0.56507   0.57976   0.59521   0.61002
 Alpha virt. eigenvalues --    0.61771   0.62462   0.65513   0.66707   0.68989
 Alpha virt. eigenvalues --    0.69054   0.70382   0.71099   0.72486   0.72646
 Alpha virt. eigenvalues --    0.73141   0.74044   0.74393   0.75800   0.76462
 Alpha virt. eigenvalues --    0.76784   0.77473   0.78662   0.79470   0.79873
 Alpha virt. eigenvalues --    0.81975   0.82180   0.83071   0.83632   0.84024
 Alpha virt. eigenvalues --    0.85107
          Condensed to atoms (all electrons):
              1          2          3          4          5          6
     1  C    4.740438   0.365672   0.000702   0.000728   0.000008  -0.024277
     2  C    0.365672   4.744061  -0.020543  -0.021763  -0.003763   0.364084
     3  C    0.000702  -0.020543   4.741410  -0.022823   0.357929  -0.003318
     4  C    0.000728  -0.021763  -0.022823   4.755192   0.361575   0.363023
     5  C    0.000008  -0.003763   0.357929   0.361575   4.770292  -0.021758
     6  C   -0.024277   0.364084  -0.003318   0.363023  -0.021758   4.755251
     7  C   -0.024210   0.362786   0.357312  -0.003766  -0.022645  -0.023384
     8  O    0.000000  -0.000770   0.267235  -0.000652  -0.016534   0.000059
     9  C    0.000000   0.000004  -0.018184  -0.021143   0.358816   0.000636
    10  C    0.000000   0.000000  -0.001926   0.000637  -0.022497  -0.000004
    11  C    0.000000   0.000000  -0.000786  -0.002039  -0.019068   0.000008
    12  H    0.382106  -0.020734   0.000007   0.000008   0.000002  -0.002228
    13  H    0.382138  -0.020356   0.000012  -0.000017   0.000000   0.001293
    14  H    0.382476  -0.020198  -0.000017   0.000013   0.000000  -0.002232
    15  H   -0.024218   0.382058  -0.001524  -0.001681   0.000062  -0.023738
    16  H   -0.000015   0.001182   0.376134   0.001163  -0.022902   0.000010
    17  H   -0.000016   0.001245   0.001192   0.382390  -0.021188  -0.021925
    18  H    0.000004  -0.001745  -0.001892   0.382183  -0.021246  -0.023044
    19  H   -0.000008   0.000093  -0.023474  -0.024376   0.379460  -0.002521
    20  H   -0.002636  -0.022632   0.000052  -0.023093  -0.001861   0.380747
    21  H   -0.001938  -0.021287   0.000002  -0.021609   0.001226   0.382604
    22  H   -0.002712  -0.021806  -0.020642   0.000081  -0.001306  -0.001606
    23  H   -0.001961  -0.022311  -0.021932   0.000002   0.001125   0.001249
    24  H   -0.000005   0.000008  -0.041061   0.000020   0.002423  -0.000005
    25  H    0.000000  -0.000001   0.001081  -0.002558  -0.023943   0.000014
    26  H    0.000000   0.000000  -0.000638  -0.000004  -0.001269   0.000000
    27  H    0.000000   0.000000  -0.000025   0.000018  -0.002573   0.000000
    28  H    0.000000   0.000000   0.000019  -0.000014   0.001178   0.000000
    29  H    0.000000   0.000000   0.000002   0.000027  -0.001065  -0.000001
    30  H    0.000000   0.000000   0.000020  -0.000850  -0.001786   0.000001
    31  H    0.000000   0.000000  -0.000005   0.000024   0.001095   0.000000
              7          8          9         10         11         12
     1  C   -0.024210   0.000000   0.000000   0.000000   0.000000   0.382106
     2  C    0.362786  -0.000770   0.000004   0.000000   0.000000  -0.020734
     3  C    0.357312   0.267235  -0.018184  -0.001926  -0.000786   0.000007
     4  C   -0.003766  -0.000652  -0.021143   0.000637  -0.002039   0.000008
     5  C   -0.022645  -0.016534   0.358816  -0.022497  -0.019068   0.000002
     6  C   -0.023384   0.000059   0.000636  -0.000004   0.000008  -0.002228
     7  C    4.784394  -0.020302   0.000561   0.000009  -0.000003  -0.002228
     8  O   -0.020302   7.848156  -0.000223   0.000020  -0.001028   0.000000
     9  C    0.000561  -0.000223   4.735857   0.363994   0.364733   0.000000
    10  C    0.000009   0.000020   0.363994   4.744352  -0.026251   0.000000
    11  C   -0.000003  -0.001028   0.364733  -0.026251   4.740217   0.000000
    12  H   -0.002228   0.000000   0.000000   0.000000   0.000000   0.631811
    13  H   -0.002215   0.000000   0.000000   0.000000   0.000000  -0.021803
    14  H    0.001283   0.000000   0.000000   0.000000   0.000000  -0.021705
    15  H   -0.023680   0.000295  -0.000003   0.000000   0.000000   0.001888
    16  H   -0.026647  -0.019125  -0.001641  -0.000713   0.000033  -0.000001
    17  H    0.000009  -0.000001  -0.002307   0.000016   0.000015   0.000000
    18  H    0.000077   0.000244  -0.001475  -0.000003  -0.000795  -0.000001
    19  H   -0.002209   0.000541  -0.023883  -0.002716   0.001125   0.000000
    20  H   -0.001634  -0.000001   0.000006   0.000000  -0.000001   0.000366
    21  H    0.001232  -0.000001  -0.000013   0.000000   0.000000   0.000001
    22  H    0.379223   0.000621   0.000006   0.000001   0.000000   0.000369
    23  H    0.380959  -0.001498  -0.000013   0.000000   0.000000  -0.000005
    24  H   -0.003173   0.258135  -0.000003  -0.000003   0.000044   0.000000
    25  H   -0.000014  -0.000007   0.381496  -0.024805  -0.025397   0.000000
    26  H    0.000002   0.000022  -0.020245   0.382415  -0.002573   0.000000
    27  H   -0.000003   0.000001  -0.020288   0.381933   0.001319   0.000000
    28  H    0.000000  -0.000001  -0.019837   0.382476  -0.001988   0.000000
    29  H    0.000001   0.000169  -0.020070  -0.002618   0.382689   0.000000
    30  H   -0.000001  -0.000011  -0.019558   0.001319   0.383083   0.000000
    31  H    0.000000   0.000016  -0.020417  -0.002175   0.381270   0.000000
             13         14         15         16         17         18
     1  C    0.382138   0.382476  -0.024218  -0.000015  -0.000016   0.000004
     2  C   -0.020356  -0.020198   0.382058   0.001182   0.001245  -0.001745
     3  C    0.000012  -0.000017  -0.001524   0.376134   0.001192  -0.001892
     4  C   -0.000017   0.000013  -0.001681   0.001163   0.382390   0.382183
     5  C    0.000000   0.000000   0.000062  -0.022902  -0.021188  -0.021246
     6  C    0.001293  -0.002232  -0.023738   0.000010  -0.021925  -0.023044
     7  C   -0.002215   0.001283  -0.023680  -0.026647   0.000009   0.000077
     8  O    0.000000   0.000000   0.000295  -0.019125  -0.000001   0.000244
     9  C    0.000000   0.000000  -0.000003  -0.001641  -0.002307  -0.001475
    10  C    0.000000   0.000000   0.000000  -0.000713   0.000016  -0.000003
    11  C    0.000000   0.000000   0.000000   0.000033   0.000015  -0.000795
    12  H   -0.021803  -0.021705   0.001888  -0.000001   0.000000  -0.000001
    13  H    0.632479  -0.021619  -0.002295  -0.000001   0.000000   0.000000
    14  H   -0.021619   0.629607  -0.002282   0.000000  -0.000001   0.000002
    15  H   -0.002295  -0.002282   0.643595   0.000007   0.000003   0.000261
    16  H   -0.000001   0.000000   0.000007   0.661525  -0.000029   0.000006
    17  H    0.000000  -0.000001   0.000003  -0.000029   0.642486  -0.023295
    18  H    0.000000   0.000002   0.000261   0.000006  -0.023295   0.632330
    19  H    0.000000   0.000000   0.000007  -0.001875  -0.002327   0.001901
    20  H    0.000017  -0.000012   0.001886  -0.000010  -0.002835   0.001948
    21  H    0.000011   0.000230  -0.002688   0.000002  -0.001902  -0.002815
    22  H   -0.000017   0.000020   0.001872  -0.002172  -0.000008   0.000003
    23  H    0.000250   0.000010  -0.002727  -0.001872   0.000002  -0.000009
    24  H    0.000000   0.000000   0.000005  -0.003526   0.000001  -0.000037
    25  H    0.000000   0.000000   0.000000   0.000004   0.000197   0.000038
    26  H    0.000000   0.000000   0.000000  -0.000774   0.000000   0.000001
    27  H    0.000000   0.000000   0.000000   0.000007   0.000002   0.000000
    28  H    0.000000   0.000000   0.000000   0.000005  -0.000001   0.000000
    29  H    0.000000   0.000000   0.000000   0.000003   0.000003   0.000033
    30  H    0.000000   0.000000   0.000000   0.000002   0.000024  -0.000787
    31  H    0.000000   0.000000   0.000000  -0.000002  -0.000008   0.000000
             19         20         21         22         23         24
     1  C   -0.000008  -0.002636  -0.001938  -0.002712  -0.001961  -0.000005
     2  C    0.000093  -0.022632  -0.021287  -0.021806  -0.022311   0.000008
     3  C   -0.023474   0.000052   0.000002  -0.020642  -0.021932  -0.041061
     4  C   -0.024376  -0.023093  -0.021609   0.000081   0.000002   0.000020
     5  C    0.379460  -0.001861   0.001226  -0.001306   0.001125   0.002423
     6  C   -0.002521   0.380747   0.382604  -0.001606   0.001249  -0.000005
     7  C   -0.002209  -0.001634   0.001232   0.379223   0.380959  -0.003173
     8  O    0.000541  -0.000001  -0.000001   0.000621  -0.001498   0.258135
     9  C   -0.023883   0.000006  -0.000013   0.000006  -0.000013  -0.000003
    10  C   -0.002716   0.000000   0.000000   0.000001   0.000000  -0.000003
    11  C    0.001125  -0.000001   0.000000   0.000000   0.000000   0.000044
    12  H    0.000000   0.000366   0.000001   0.000369  -0.000005   0.000000
    13  H    0.000000   0.000017   0.000011  -0.000017   0.000250   0.000000
    14  H    0.000000  -0.000012   0.000230   0.000020   0.000010   0.000000
    15  H    0.000007   0.001886  -0.002688   0.001872  -0.002727   0.000005
    16  H   -0.001875  -0.000010   0.000002  -0.002172  -0.001872  -0.003526
    17  H   -0.002327  -0.002835  -0.001902  -0.000008   0.000002   0.000001
    18  H    0.001901   0.001948  -0.002815   0.000003  -0.000009  -0.000037
    19  H    0.657000   0.000350   0.000016  -0.000105   0.000029  -0.000074
    20  H    0.000350   0.648396  -0.023571   0.000322   0.000000   0.000000
    21  H    0.000016  -0.023571   0.640914   0.000001  -0.000034   0.000000
    22  H   -0.000105   0.000322   0.000001   0.640389  -0.022489   0.000004
    23  H    0.000029   0.000000  -0.000034  -0.022489   0.646614   0.000546
    24  H   -0.000074   0.000000   0.000000   0.000004   0.000546   0.610201
    25  H   -0.002756   0.000004  -0.000001   0.000000   0.000000   0.000002
    26  H    0.000029   0.000000   0.000000   0.000000   0.000001   0.000003
    27  H    0.000216   0.000000   0.000000   0.000000   0.000000   0.000000
    28  H    0.000023   0.000000   0.000000   0.000000   0.000000   0.000000
    29  H   -0.000005   0.000000   0.000000   0.000000   0.000000   0.000036
    30  H    0.000010   0.000000   0.000001   0.000000   0.000000   0.000001
    31  H   -0.000030   0.000000   0.000000   0.000000   0.000000  -0.000002
             25         26         27         28         29         30
     1  C    0.000000   0.000000   0.000000   0.000000   0.000000   0.000000
     2  C   -0.000001   0.000000   0.000000   0.000000   0.000000   0.000000
     3  C    0.001081  -0.000638  -0.000025   0.000019   0.000002   0.000020
     4  C   -0.002558  -0.000004   0.000018  -0.000014   0.000027  -0.000850
     5  C   -0.023943  -0.001269  -0.002573   0.001178  -0.001065  -0.001786
     6  C    0.000014   0.000000   0.000000   0.000000  -0.000001   0.000001
     7  C   -0.000014   0.000002  -0.000003   0.000000   0.000001  -0.000001
     8  O   -0.000007   0.000022   0.000001  -0.000001   0.000169  -0.000011
     9  C    0.381496  -0.020245  -0.020288  -0.019837  -0.020070  -0.019558
    10  C   -0.024805   0.382415   0.381933   0.382476  -0.002618   0.001319
    11  C   -0.025397  -0.002573   0.001319  -0.001988   0.382689   0.383083
    12  H    0.000000   0.000000   0.000000   0.000000   0.000000   0.000000
    13  H    0.000000   0.000000   0.000000   0.000000   0.000000   0.000000
    14  H    0.000000   0.000000   0.000000   0.000000   0.000000   0.000000
    15  H    0.000000   0.000000   0.000000   0.000000   0.000000   0.000000
    16  H    0.000004  -0.000774   0.000007   0.000005   0.000003   0.000002
    17  H    0.000197   0.000000   0.000002  -0.000001   0.000003   0.000024
    18  H    0.000038   0.000001   0.000000   0.000000   0.000033  -0.000787
    19  H   -0.002756   0.000029   0.000216   0.000023  -0.000005   0.000010
    20  H    0.000004   0.000000   0.000000   0.000000   0.000000   0.000000
    21  H   -0.000001   0.000000   0.000000   0.000000   0.000000   0.000001
    22  H    0.000000   0.000000   0.000000   0.000000   0.000000   0.000000
    23  H    0.000000   0.000001   0.000000   0.000000   0.000000   0.000000
    24  H    0.000002   0.000003   0.000000   0.000000   0.000036   0.000001
    25  H    0.657051   0.001935  -0.001873  -0.003098   0.001930  -0.001818
    26  H    0.001935   0.631369  -0.021806  -0.022044   0.000382   0.000016
    27  H   -0.001873  -0.021806   0.635099  -0.021781   0.000018  -0.000037
    28  H   -0.003098  -0.022044  -0.021781   0.631452  -0.000022   0.000022
    29  H    0.001930   0.000382   0.000018  -0.000022   0.616249  -0.020914
    30  H   -0.001818   0.000016  -0.000037   0.000022  -0.020914   0.627939
    31  H   -0.003216  -0.000011   0.000024   0.000093  -0.022343  -0.022336
             31
     1  C    0.000000
     2  C    0.000000
     3  C   -0.000005
     4  C    0.000024
     5  C    0.001095
     6  C    0.000000
     7  C    0.000000
     8  O    0.000016
     9  C   -0.020417
    10  C   -0.002175
    11  C    0.381270
    12  H    0.000000
    13  H    0.000000
    14  H    0.000000
    15  H    0.000000
    16  H   -0.000002
    17  H   -0.000008
    18  H    0.000000
    19  H   -0.000030
    20  H    0.000000
    21  H    0.000000
    22  H    0.000000
    23  H    0.000000
    24  H   -0.000002
    25  H   -0.003216
    26  H   -0.000011
    27  H    0.000024
    28  H    0.000093
    29  H   -0.022343
    30  H   -0.022336
    31  H    0.639128
 Mulliken atomic charges:
              1
     1  C   -0.172277
     2  C   -0.023284
     3  C    0.075684
     4  C   -0.100697
     5  C   -0.029786
     6  C   -0.098939
     7  C   -0.111733
     8  O   -0.315359
     9  C   -0.016808
    10  C   -0.173459
    11  C   -0.174605
    12  H    0.052147
    13  H    0.052122
    14  H    0.054423
    15  H    0.052895
    16  H    0.041222
    17  H    0.048256
    18  H    0.058112
    19  H    0.045559
    20  H    0.044195
    21  H    0.049618
    22  H    0.049950
    23  H    0.044064
    24  H    0.176458
    25  H    0.045735
    26  H    0.053189
    27  H    0.049751
    28  H    0.053518
    29  H    0.065494
    30  H    0.055660
    31  H    0.048896
 Sum of Mulliken atomic charges =   0.00000
 Mulliken charges with hydrogens summed into heavy atoms:
              1
     1  C   -0.013585
     2  C    0.029611
     3  C    0.116906
     4  C    0.005672
     5  C    0.015773
     6  C   -0.005127
     7  C   -0.017719
     8  O   -0.138901
     9  C    0.028927
    10  C   -0.017001
    11  C   -0.004555
 Sum of Mulliken charges with hydrogens summed into heavy atoms =   0.00000
 Electronic spatial extent (au):  <R**2>=           2132.2751
 Charge=              0.0000 electrons
 Dipole moment (field-independent basis, Debye):
    X=             -0.6199    Y=             -0.7275    Z=             -0.8304  Tot=              1.2661
 Quadrupole moment (field-independent basis, Debye-Ang):
   XX=            -68.8468   YY=            -64.0460   ZZ=            -68.6904
   XY=              1.1066   XZ=             -1.1791   YZ=             -0.6059
 Traceless Quadrupole moment (field-independent basis, Debye-Ang):
   XX=             -1.6524   YY=              3.1484   ZZ=             -1.4960
   XY=              1.1066   XZ=             -1.1791   YZ=             -0.6059
 Octapole moment (field-independent basis, Debye-Ang**2):
  XXX=              5.7571  YYY=            -18.5865  ZZZ=              4.1389  XYY=             -1.2358
  XXY=             -1.0576  XXZ=              3.7189  XZZ=             -3.1580  YZZ=             -2.2261
  YYZ=              7.4638  XYZ=              0.6475
 Hexadecapole moment (field-independent basis, Debye-Ang**3):
 XXXX=          -1963.6444 YYYY=           -446.2520 ZZZZ=           -319.9949 XXXY=              2.2286
 XXXZ=             -2.4879 YYYX=              1.9668 YYYZ=            -24.0889 ZZZX=              1.7294
 ZZZY=            -11.4511 XXYY=           -401.4186 XXZZ=           -383.1826 YYZZ=           -127.8935
 XXYZ=             -4.9138 YYXZ=             -3.8264 ZZXY=              0.4728
 N-N= 6.961487793660D+02 E-N=-2.464507261890D+03  KE= 4.555188513369D+02
 ******************************Gaussian NBO Version 3.1******************************
             N A T U R A L   A T O M I C   O R B I T A L   A N D
          N A T U R A L   B O N D   O R B I T A L   A N A L Y S I S
 ******************************Gaussian NBO Version 3.1******************************
       /RESON  / : Allow strongly delocalized NBO set
       /NLMO   / : Form Natural Localized Molecular Orbitals
       /NMR /    : Analyze NMR Sheilding Tensor 

 Analyzing the SCF density

 Job title: comment                                                         

 Storage needed:     19864 in NPA,     23691 in NBO,     45933 in NLMO (  33549317 available)


 NATURAL POPULATIONS:  Natural atomic orbital occupancies 
                                                          
   NAO  Atom  No  lang   Type(AO)    Occupancy      Energy
 ----------------------------------------------------------
     1    C    1  S      Cor( 1S)     1.99997     -10.96394
     2    C    1  S      Val( 2S)     1.07971      -0.18053
     3    C    1  px     Val( 2p)     0.99464       0.08824
     4    C    1  py     Val( 2p)     1.02793       0.08508
     5    C    1  pz     Val( 2p)     1.02518       0.08595

     6    C    2  S      Cor( 1S)     1.99997     -10.98612
     7    C    2  S      Val( 2S)     1.07967      -0.18921
     8    C    2  px     Val( 2p)     0.95080       0.11329
     9    C    2  py     Val( 2p)     0.95907       0.11125
    10    C    2  pz     Val( 2p)     0.99631       0.10419

    11    C    3  S      Cor( 1S)     1.99988     -11.03429
    12    C    3  S      Val( 2S)     1.08698      -0.21591
    13    C    3  px     Val( 2p)     0.96448       0.08986
    14    C    3  py     Val( 2p)     0.98546       0.08107
    15    C    3  pz     Val( 2p)     0.81977       0.13050

    16    C    4  S      Cor( 1S)     1.99996     -10.96843
    17    C    4  S      Val( 2S)     1.08453      -0.18284
    18    C    4  px     Val( 2p)     0.97206       0.10511
    19    C    4  py     Val( 2p)     0.99296       0.10176
    20    C    4  pz     Val( 2p)     1.01449       0.09892

    21    C    5  S      Cor( 1S)     1.99995     -10.98822
    22    C    5  S      Val( 2S)     1.10002      -0.20755
    23    C    5  px     Val( 2p)     0.96092       0.10721
    24    C    5  py     Val( 2p)     0.95520       0.10836
    25    C    5  pz     Val( 2p)     0.99191       0.10118

    26    C    6  S      Cor( 1S)     1.99996     -10.97021
    27    C    6  S      Val( 2S)     1.08356      -0.18386
    28    C    6  px     Val( 2p)     0.98032       0.10148
    29    C    6  py     Val( 2p)     0.98569       0.10061
    30    C    6  pz     Val( 2p)     1.01166       0.09847

    31    C    7  S      Cor( 1S)     1.99996     -10.97607
    32    C    7  S      Val( 2S)     1.09391      -0.20051
    33    C    7  px     Val( 2p)     0.98518       0.08749
    34    C    7  py     Val( 2p)     0.99839       0.08752
    35    C    7  pz     Val( 2p)     1.00945       0.08872

    36    O    8  S      Cor( 1S)     1.99999     -20.14120
    37    O    8  S      Val( 2S)     1.74739      -0.99832
    38    O    8  px     Val( 2p)     1.87235      -0.33223
    39    O    8  py     Val( 2p)     1.39240      -0.13998
    40    O    8  pz     Val( 2p)     1.32417      -0.10356

    41    C    9  S      Cor( 1S)     1.99996     -10.98596
    42    C    9  S      Val( 2S)     1.08408      -0.18974
    43    C    9  px     Val( 2p)     0.94791       0.11904
    44    C    9  py     Val( 2p)     0.98498       0.10899
    45    C    9  pz     Val( 2p)     0.95911       0.11721

    46    C   10  S      Cor( 1S)     1.99997     -10.96012
    47    C   10  S      Val( 2S)     1.08090      -0.17814
    48    C   10  px     Val( 2p)     1.01962       0.08782
    49    C   10  py     Val( 2p)     1.01548       0.09045
    50    C   10  pz     Val( 2p)     1.01319       0.09070

    51    C   11  S      Cor( 1S)     1.99997     -10.95184
    52    C   11  S      Val( 2S)     1.07937      -0.16809
    53    C   11  px     Val( 2p)     1.02071       0.09756
    54    C   11  py     Val( 2p)     1.03843       0.09471
    55    C   11  pz     Val( 2p)     0.99322       0.10246

    56    H   12  S      Val( 1S)     0.96507       0.07413

    57    H   13  S      Val( 1S)     0.96501       0.07395

    58    H   14  S      Val( 1S)     0.96284       0.07596

    59    H   15  S      Val( 1S)     0.97191       0.07299

    60    H   16  S      Val( 1S)     0.99474       0.04969

    61    H   17  S      Val( 1S)     0.97249       0.07447

    62    H   18  S      Val( 1S)     0.96397       0.08655

    63    H   19  S      Val( 1S)     0.97926       0.06209

    64    H   20  S      Val( 1S)     0.97646       0.07032

    65    H   21  S      Val( 1S)     0.97108       0.07395

    66    H   22  S      Val( 1S)     0.97029       0.06481

    67    H   23  S      Val( 1S)     0.97581       0.05937

    68    H   24  S      Val( 1S)     0.81086       0.07361

    69    H   25  S      Val( 1S)     0.97937       0.06985

    70    H   26  S      Val( 1S)     0.96428       0.07948

    71    H   27  S      Val( 1S)     0.96735       0.07560

    72    H   28  S      Val( 1S)     0.96362       0.07824

    73    H   29  S      Val( 1S)     0.95310       0.09938

    74    H   30  S      Val( 1S)     0.96174       0.09121

    75    H   31  S      Val( 1S)     0.96767       0.08197


 Summary of Natural Population Analysis:                  
                                                          
                                       Natural Population 
                Natural  -----------------------------------------------
    Atom  No    Charge         Core      Valence    Rydberg      Total
 -----------------------------------------------------------------------
      C    1   -0.12743      1.99997     4.12745    0.00000     6.12743
      C    2    0.01419      1.99997     3.98584    0.00000     5.98581
      C    3    0.14343      1.99988     3.85668    0.00000     5.85657
      C    4   -0.06400      1.99996     4.06404    0.00000     6.06400
      C    5   -0.00800      1.99995     4.00805    0.00000     6.00800
      C    6   -0.06118      1.99996     4.06122    0.00000     6.06118
      C    7   -0.08691      1.99996     4.08694    0.00000     6.08691
      O    8   -0.33630      1.99999     6.33631    0.00000     8.33630
      C    9    0.02397      1.99996     3.97607    0.00000     5.97603
      C   10   -0.12916      1.99997     4.12919    0.00000     6.12916
      C   11   -0.13170      1.99997     4.13173    0.00000     6.13170
      H   12    0.03493      0.00000     0.96507    0.00000     0.96507
      H   13    0.03499      0.00000     0.96501    0.00000     0.96501
      H   14    0.03716      0.00000     0.96284    0.00000     0.96284
      H   15    0.02809      0.00000     0.97191    0.00000     0.97191
      H   16    0.00526      0.00000     0.99474    0.00000     0.99474
      H   17    0.02751      0.00000     0.97249    0.00000     0.97249
      H   18    0.03603      0.00000     0.96397    0.00000     0.96397
      H   19    0.02074      0.00000     0.97926    0.00000     0.97926
      H   20    0.02354      0.00000     0.97646    0.00000     0.97646
      H   21    0.02892      0.00000     0.97108    0.00000     0.97108
      H   22    0.02971      0.00000     0.97029    0.00000     0.97029
      H   23    0.02419      0.00000     0.97581    0.00000     0.97581
      H   24    0.18914      0.00000     0.81086    0.00000     0.81086
      H   25    0.02063      0.00000     0.97937    0.00000     0.97937
      H   26    0.03572      0.00000     0.96428    0.00000     0.96428
      H   27    0.03265      0.00000     0.96735    0.00000     0.96735
      H   28    0.03638      0.00000     0.96362    0.00000     0.96362
      H   29    0.04690      0.00000     0.95310    0.00000     0.95310
      H   30    0.03826      0.00000     0.96174    0.00000     0.96174
      H   31    0.03233      0.00000     0.96767    0.00000     0.96767
 =======================================================================
   * Total *    0.00000     21.99955    66.00045    0.00000    88.00000

                                 Natural Population      
 --------------------------------------------------------
   Core                      21.99955 ( 99.9980% of  22)
   Valence                   66.00045 (100.0007% of  66)
   Natural Minimal Basis     88.00000 (100.0000% of  88)
   Natural Rydberg Basis      0.00000 (  0.0000% of  88)
 --------------------------------------------------------

    Atom  No          Natural Electron Configuration
 ----------------------------------------------------------------------------
      C    1      [core]2S( 1.08)2p( 3.05)
      C    2      [core]2S( 1.08)2p( 2.91)
      C    3      [core]2S( 1.09)2p( 2.77)
      C    4      [core]2S( 1.08)2p( 2.98)
      C    5      [core]2S( 1.10)2p( 2.91)
      C    6      [core]2S( 1.08)2p( 2.98)
      C    7      [core]2S( 1.09)2p( 2.99)
      O    8      [core]2S( 1.75)2p( 4.59)
      C    9      [core]2S( 1.08)2p( 2.89)
      C   10      [core]2S( 1.08)2p( 3.05)
      C   11      [core]2S( 1.08)2p( 3.05)
      H   12            1S( 0.97)
      H   13            1S( 0.97)
      H   14            1S( 0.96)
      H   15            1S( 0.97)
      H   16            1S( 0.99)
      H   17            1S( 0.97)
      H   18            1S( 0.96)
      H   19            1S( 0.98)
      H   20            1S( 0.98)
      H   21            1S( 0.97)
      H   22            1S( 0.97)
      H   23            1S( 0.98)
      H   24            1S( 0.81)
      H   25            1S( 0.98)
      H   26            1S( 0.96)
      H   27            1S( 0.97)
      H   28            1S( 0.96)
      H   29            1S( 0.95)
      H   30            1S( 0.96)
      H   31            1S( 0.97)


 NATURAL BOND ORBITAL ANALYSIS:

                       Occupancies       Lewis Structure    Low   High
           Occ.    -------------------  -----------------   occ   occ
  Cycle   Thresh.   Lewis   Non-Lewis     CR  BD  3C  LP    (L)   (NL)   Dev
 =============================================================================
   1(1)    1.90    87.63764   0.36236     11  31   0   2     0      0    0.02
 -----------------------------------------------------------------------------

 Structure accepted: No low occupancy Lewis orbitals

 --------------------------------------------------------
   Core                     21.99955 ( 99.998% of  22)
   Valence Lewis            65.63809 ( 99.452% of  66)
  ==================       ============================
   Total Lewis              87.63764 ( 99.588% of  88)
  -----------------------------------------------------
   Valence non-Lewis         0.36236 (  0.412% of  88)
   Rydberg non-Lewis         0.00000 (  0.000% of  88)
  ==================       ============================
   Total non-Lewis           0.36236 (  0.412% of  88)
 --------------------------------------------------------


       (Occupancy)   Bond orbital/ Coefficients/ Hybrids
 ---------------------------------------------------------------------------------
     1. (1.98885) BD ( 1) C   1 - C   2  
                ( 50.97%)   0.7139* C   1 s( 25.76%)p 2.88( 74.24%)
                                            0.0001  0.5076  0.8323  0.0358  0.2197
                ( 49.03%)   0.7002* C   2 s( 25.15%)p 2.98( 74.85%)
                                            0.0000  0.5015 -0.8289 -0.0344 -0.2454
     2. (1.99550) BD ( 1) C   1 - H  12  
                ( 51.79%)   0.7197* C   1 s( 24.81%)p 3.03( 75.19%)
                                            0.0000  0.4981 -0.0836  0.1239 -0.8542
                ( 48.21%)   0.6943* H  12 s(100.00%)
                                            1.0000
     3. (1.99505) BD ( 1) C   1 - H  13  
                ( 51.76%)   0.7195* C   1 s( 24.68%)p 3.05( 75.32%)
                                            0.0000  0.4968 -0.3246 -0.7773  0.2087
                ( 48.24%)   0.6945* H  13 s(100.00%)
                                            1.0000
     4. (1.99496) BD ( 1) C   1 - H  14  
                ( 51.87%)   0.7202* C   1 s( 24.75%)p 3.04( 75.25%)
                                            0.0000  0.4975 -0.4414  0.6157  0.4226
                ( 48.13%)   0.6938* H  14 s(100.00%)
                                            1.0000
     5. (1.98547) BD ( 1) C   2 - C   6  
                ( 49.70%)   0.7050* C   2 s( 25.08%)p 2.99( 74.92%)
                                            0.0000  0.5008  0.3288  0.7763 -0.1961
                ( 50.30%)   0.7092* C   6 s( 25.34%)p 2.95( 74.66%)
                                            0.0001  0.5034 -0.3181 -0.7826  0.1815
     6. (1.98517) BD ( 1) C   2 - C   7  
                ( 49.24%)   0.7017* C   2 s( 24.97%)p 3.00( 75.03%)
                                            0.0000  0.4997  0.4494 -0.6164 -0.4104
                ( 50.76%)   0.7125* C   7 s( 25.29%)p 2.95( 74.71%)
                                            0.0001  0.5029 -0.4314  0.6328  0.4008
     7. (1.98499) BD ( 1) C   2 - H  15  
                ( 51.35%)   0.7166* C   2 s( 24.80%)p 3.03( 75.20%)
                                            0.0000  0.4980  0.0531 -0.1275  0.8561
                ( 48.65%)   0.6975* H  15 s(100.00%)
                                            1.0000
     8. (1.98206) BD ( 1) C   3 - C   5  
                ( 50.71%)   0.7121* C   3 s( 26.69%)p 2.75( 73.31%)
                                            0.0000  0.5166  0.3257  0.7765 -0.1553
                ( 49.29%)   0.7021* C   5 s( 25.25%)p 2.96( 74.75%)
                                            0.0001  0.5025 -0.2888 -0.7817  0.2304
     9. (1.98677) BD ( 1) C   3 - C   7  
                ( 49.31%)   0.7022* C   3 s( 25.37%)p 2.94( 74.63%)
                                            0.0000  0.5037 -0.8445 -0.0172 -0.1810
                ( 50.69%)   0.7119* C   7 s( 25.05%)p 2.99( 74.95%)
                                            0.0000  0.5005  0.8424  0.0549  0.1920
    10. (1.98902) BD ( 1) C   3 - O   8  
                ( 40.94%)   0.6398* C   3 s( 22.23%)p 3.50( 77.77%)
                                            0.0000  0.4715  0.1015 -0.1850  0.8563
                ( 59.06%)   0.7685* O   8 s( 16.71%)p 4.98( 83.29%)
                                            0.0000  0.4088 -0.1403  0.1361 -0.8914
    11. (1.98830) BD ( 1) C   3 - H  16  
                ( 50.56%)   0.7111* C   3 s( 25.71%)p 2.89( 74.29%)
                                            0.0000  0.5070  0.4128 -0.6021 -0.4582
                ( 49.44%)   0.7031* H  16 s(100.00%)
                                            1.0000
    12. (1.98457) BD ( 1) C   4 - C   5  
                ( 50.20%)   0.7085* C   4 s( 25.23%)p 2.96( 74.77%)
                                            0.0001  0.5023  0.4379 -0.6244 -0.4076
                ( 49.80%)   0.7057* C   5 s( 25.02%)p 3.00( 74.98%)
                                            0.0000  0.5002 -0.4285  0.6098  0.4408
    13. (1.98898) BD ( 1) C   4 - C   6  
                ( 49.87%)   0.7062* C   4 s( 25.00%)p 3.00( 75.00%)
                                            0.0000  0.5000 -0.8412 -0.0587 -0.1976
                ( 50.13%)   0.7080* C   6 s( 25.18%)p 2.97( 74.82%)
                                            0.0000  0.5018  0.8439  0.0235  0.1883
    14. (1.98971) BD ( 1) C   4 - H  17  
                ( 51.35%)   0.7166* C   4 s( 24.92%)p 3.01( 75.08%)
                                            0.0000  0.4992  0.3008  0.7740 -0.2474
                ( 48.65%)   0.6975* H  17 s(100.00%)
                                            1.0000
    15. (1.99014) BD ( 1) C   4 - H  18  
                ( 51.83%)   0.7199* C   4 s( 24.86%)p 3.02( 75.14%)
                                            0.0000  0.4986  0.1012 -0.0871  0.8565
                ( 48.17%)   0.6940* H  18 s(100.00%)
                                            1.0000
    16. (1.97917) BD ( 1) C   5 - C   9  
                ( 50.30%)   0.7093* C   5 s( 25.72%)p 2.89( 74.28%)
                                            0.0001  0.5071  0.8445  0.0613  0.1607
                ( 49.70%)   0.7049* C   9 s( 25.47%)p 2.93( 74.53%)
                                            0.0001  0.5047 -0.8499 -0.1340 -0.0711
    17. (1.98216) BD ( 1) C   5 - H  19  
                ( 50.88%)   0.7133* C   5 s( 24.01%)p 3.16( 75.99%)
                                            0.0000  0.4900 -0.1404  0.1157 -0.8525
                ( 49.12%)   0.7009* H  19 s(100.00%)
                                            1.0000
    18. (1.99088) BD ( 1) C   6 - H  20  
                ( 51.22%)   0.7157* C   6 s( 24.58%)p 3.07( 75.42%)
                                            0.0000  0.4958 -0.1109  0.1680 -0.8448
                ( 48.78%)   0.6985* H  20 s(100.00%)
                                            1.0000
    19. (1.98993) BD ( 1) C   6 - H  21  
                ( 51.42%)   0.7171* C   6 s( 24.90%)p 3.02( 75.10%)
                                            0.0000  0.4990 -0.4175  0.5990  0.4668
                ( 48.58%)   0.6970* H  21 s(100.00%)
                                            1.0000
    20. (1.98941) BD ( 1) C   7 - H  22  
                ( 51.47%)   0.7175* C   7 s( 24.80%)p 3.03( 75.20%)
                                            0.0000  0.4980 -0.1054  0.0756 -0.8574
                ( 48.53%)   0.6966* H  22 s(100.00%)
                                            1.0000
    21. (1.98852) BD ( 1) C   7 - H  23  
                ( 51.17%)   0.7153* C   7 s( 24.86%)p 3.02( 75.14%)
                                            0.0000  0.4986 -0.3053 -0.7687  0.2594
                ( 48.83%)   0.6988* H  23 s(100.00%)
                                            1.0000
    22. (1.98900) BD ( 1) O   8 - H  24  
                ( 59.46%)   0.7711* O   8 s( 16.82%)p 4.94( 83.18%)
                                            0.0000 -0.4102  0.3443  0.8367 -0.1145
                ( 40.54%)   0.6367* H  24 s(100.00%)
                                           -1.0000
    23. (1.98940) BD ( 1) C   9 - C  10  
                ( 48.85%)   0.6990* C   9 s( 24.82%)p 3.03( 75.18%)
                                            0.0000  0.4982  0.4274 -0.5761 -0.4871
                ( 51.15%)   0.7152* C  10 s( 25.79%)p 2.88( 74.21%)
                                            0.0001  0.5078 -0.4536  0.5414  0.4932
    24. (1.99023) BD ( 1) C   9 - C  11  
                ( 49.41%)   0.7029* C   9 s( 25.63%)p 2.90( 74.37%)
                                            0.0000  0.5063  0.2440 -0.0775  0.8235
                ( 50.59%)   0.7113* C  11 s( 25.86%)p 2.87( 74.14%)
                                            0.0001  0.5085 -0.2970  0.0448 -0.8070
    25. (1.98369) BD ( 1) C   9 - H  25  
                ( 50.90%)   0.7134* C   9 s( 24.08%)p 3.15( 75.92%)
                                            0.0000  0.4907  0.1884  0.8026 -0.2820
                ( 49.10%)   0.7007* H  25 s(100.00%)
                                            1.0000
    26. (1.99516) BD ( 1) C  10 - H  26  
                ( 51.83%)   0.7200* C  10 s( 24.87%)p 3.02( 75.13%)
                                            0.0000  0.4987 -0.0998 -0.8121  0.2862
                ( 48.17%)   0.6940* H  26 s(100.00%)
                                            1.0000
    27. (1.99520) BD ( 1) C  10 - H  27  
                ( 51.66%)   0.7187* C  10 s( 24.71%)p 3.05( 75.29%)
                                            0.0000  0.4971 -0.2766  0.0498 -0.8209
                ( 48.34%)   0.6953* H  27 s(100.00%)
                                            1.0000
    28. (1.99475) BD ( 1) C  10 - H  28  
                ( 51.82%)   0.7199* C  10 s( 24.64%)p 3.06( 75.36%)
                                            0.0000  0.4964  0.8413  0.2120  0.0300
                ( 48.18%)   0.6941* H  28 s(100.00%)
                                            1.0000
    29. (1.99561) BD ( 1) C  11 - H  29  
                ( 52.42%)   0.7240* C  11 s( 24.99%)p 3.00( 75.01%)
                                            0.0000  0.4999 -0.0892 -0.8064  0.3031
                ( 47.58%)   0.6898* H  29 s(100.00%)
                                            1.0000
    30. (1.99448) BD ( 1) C  11 - H  30  
                ( 51.94%)   0.7207* C  11 s( 24.93%)p 3.01( 75.07%)
                                            0.0000  0.4993 -0.4392  0.5486  0.5068
                ( 48.06%)   0.6933* H  30 s(100.00%)
                                            1.0000
    31. (1.99416) BD ( 1) C  11 - H  31  
                ( 51.60%)   0.7183* C  11 s( 24.22%)p 3.13( 75.78%)
                                            0.0000  0.4921  0.8432  0.2162  0.0118
                ( 48.40%)   0.6957* H  31 s(100.00%)
                                            1.0000
    32. (1.99997) CR ( 1) C   1           s(100.00%)
                                            1.0000  0.0000 -0.0001  0.0000  0.0000
    33. (1.99997) CR ( 1) C   2           s(100.00%)
                                            1.0000  0.0000  0.0000  0.0000  0.0000
    34. (1.99989) CR ( 1) C   3           s(100.00%)
                                            1.0000  0.0000  0.0000  0.0000  0.0000
    35. (1.99996) CR ( 1) C   4           s(100.00%)
                                            1.0000  0.0000  0.0000  0.0001  0.0000
    36. (1.99995) CR ( 1) C   5           s(100.00%)
                                            1.0000 -0.0001  0.0000  0.0000  0.0000
    37. (1.99996) CR ( 1) C   6           s(100.00%)
                                            1.0000  0.0000  0.0000  0.0001  0.0000
    38. (1.99996) CR ( 1) C   7           s(100.00%)
                                            1.0000  0.0000  0.0000 -0.0001  0.0000
    39. (1.99999) CR ( 1) O   8           s(100.00%)
                                            1.0000  0.0000  0.0000  0.0000  0.0000
    40. (1.99996) CR ( 1) C   9           s(100.00%)
                                            1.0000  0.0000  0.0001  0.0000  0.0000
    41. (1.99997) CR ( 1) C  10           s(100.00%)
                                            1.0000  0.0000  0.0001  0.0000  0.0000
    42. (1.99997) CR ( 1) C  11           s(100.00%)
                                            1.0000  0.0000  0.0001  0.0000  0.0001
    43. (1.99259) LP ( 1) O   8           s( 66.22%)p 0.51( 33.78%)
                                            0.0000  0.8137  0.1888  0.3761  0.4009
    44. (1.97420) LP ( 2) O   8           s(  0.24%)p99.99( 99.76%)
                                            0.0000  0.0494  0.9089 -0.3741 -0.1775
    45. (0.00996) BD*( 1) C   1 - C   2  
                ( 49.03%)   0.7002* C   1 s( 25.76%)p 2.88( 74.24%)
                                           -0.0001 -0.5076 -0.8323 -0.0358 -0.2197
                ( 50.97%)  -0.7139* C   2 s( 25.15%)p 2.98( 74.85%)
                                            0.0000 -0.5015  0.8289  0.0344  0.2454
    46. (0.00601) BD*( 1) C   1 - H  12  
                ( 48.21%)   0.6943* C   1 s( 24.81%)p 3.03( 75.19%)
                                            0.0000 -0.4981  0.0836 -0.1239  0.8542
                ( 51.79%)  -0.7197* H  12 s(100.00%)
                                           -1.0000
    47. (0.00521) BD*( 1) C   1 - H  13  
                ( 48.24%)   0.6945* C   1 s( 24.68%)p 3.05( 75.32%)
                                            0.0000 -0.4968  0.3246  0.7773 -0.2087
                ( 51.76%)  -0.7195* H  13 s(100.00%)
                                           -1.0000
    48. (0.00512) BD*( 1) C   1 - H  14  
                ( 48.13%)   0.6938* C   1 s( 24.75%)p 3.04( 75.25%)
                                            0.0000 -0.4975  0.4414 -0.6157 -0.4226
                ( 51.87%)  -0.7202* H  14 s(100.00%)
                                           -1.0000
    49. (0.01581) BD*( 1) C   2 - C   6  
                ( 50.30%)   0.7092* C   2 s( 25.08%)p 2.99( 74.92%)
                                            0.0000  0.5008  0.3288  0.7763 -0.1961
                ( 49.70%)  -0.7050* C   6 s( 25.34%)p 2.95( 74.66%)
                                            0.0001  0.5034 -0.3181 -0.7826  0.1815
    50. (0.01617) BD*( 1) C   2 - C   7  
                ( 50.76%)   0.7125* C   2 s( 24.97%)p 3.00( 75.03%)
                                            0.0000  0.4997  0.4494 -0.6164 -0.4104
                ( 49.24%)  -0.7017* C   7 s( 25.29%)p 2.95( 74.71%)
                                            0.0001  0.5029 -0.4314  0.6328  0.4008
    51. (0.01196) BD*( 1) C   2 - H  15  
                ( 48.65%)   0.6975* C   2 s( 24.80%)p 3.03( 75.20%)
                                            0.0000 -0.4980 -0.0531  0.1275 -0.8561
                ( 51.35%)  -0.7166* H  15 s(100.00%)
                                           -1.0000
    52. (0.02773) BD*( 1) C   3 - C   5  
                ( 49.29%)   0.7021* C   3 s( 26.69%)p 2.75( 73.31%)
                                            0.0000 -0.5166 -0.3257 -0.7765  0.1553
                ( 50.71%)  -0.7121* C   5 s( 25.25%)p 2.96( 74.75%)
                                           -0.0001 -0.5025  0.2888  0.7817 -0.2304
    53. (0.02751) BD*( 1) C   3 - C   7  
                ( 50.69%)   0.7119* C   3 s( 25.37%)p 2.94( 74.63%)
                                            0.0000  0.5037 -0.8445 -0.0172 -0.1810
                ( 49.31%)  -0.7022* C   7 s( 25.05%)p 2.99( 74.95%)
                                            0.0000  0.5005  0.8424  0.0549  0.1920
    54. (0.02215) BD*( 1) C   3 - O   8  
                ( 59.06%)   0.7685* C   3 s( 22.23%)p 3.50( 77.77%)
                                            0.0000  0.4715  0.1015 -0.1850  0.8563
                ( 40.94%)  -0.6398* O   8 s( 16.71%)p 4.98( 83.29%)
                                            0.0000  0.4088 -0.1403  0.1361 -0.8914
    55. (0.02335) BD*( 1) C   3 - H  16  
                ( 49.44%)   0.7031* C   3 s( 25.71%)p 2.89( 74.29%)
                                            0.0000 -0.5070 -0.4128  0.6021  0.4582
                ( 50.56%)  -0.7111* H  16 s(100.00%)
                                           -1.0000
    56. (0.01602) BD*( 1) C   4 - C   5  
                ( 49.80%)   0.7057* C   4 s( 25.23%)p 2.96( 74.77%)
                                           -0.0001 -0.5023 -0.4379  0.6244  0.4076
                ( 50.20%)  -0.7085* C   5 s( 25.02%)p 3.00( 74.98%)
                                            0.0000 -0.5002  0.4285 -0.6098 -0.4408
    57. (0.01127) BD*( 1) C   4 - C   6  
                ( 50.13%)   0.7080* C   4 s( 25.00%)p 3.00( 75.00%)
                                            0.0000  0.5000 -0.8412 -0.0587 -0.1976
                ( 49.87%)  -0.7062* C   6 s( 25.18%)p 2.97( 74.82%)
                                            0.0000  0.5018  0.8439  0.0235  0.1883
    58. (0.00859) BD*( 1) C   4 - H  17  
                ( 48.65%)   0.6975* C   4 s( 24.92%)p 3.01( 75.08%)
                                            0.0000 -0.4992 -0.3008 -0.7740  0.2474
                ( 51.35%)  -0.7166* H  17 s(100.00%)
                                           -1.0000
    59. (0.01027) BD*( 1) C   4 - H  18  
                ( 48.17%)   0.6940* C   4 s( 24.86%)p 3.02( 75.14%)
                                            0.0000 -0.4986 -0.1012  0.0871 -0.8565
                ( 51.83%)  -0.7199* H  18 s(100.00%)
                                           -1.0000
    60. (0.02277) BD*( 1) C   5 - C   9  
                ( 49.70%)   0.7049* C   5 s( 25.72%)p 2.89( 74.28%)
                                           -0.0001 -0.5071 -0.8445 -0.0613 -0.1607
                ( 50.30%)  -0.7093* C   9 s( 25.47%)p 2.93( 74.53%)
                                           -0.0001 -0.5047  0.8499  0.1340  0.0711
    61. (0.01089) BD*( 1) C   5 - H  19  
                ( 49.12%)   0.7009* C   5 s( 24.01%)p 3.16( 75.99%)
                                            0.0000 -0.4900  0.1404 -0.1157  0.8525
                ( 50.88%)  -0.7133* H  19 s(100.00%)
                                           -1.0000
    62. (0.01020) BD*( 1) C   6 - H  20  
                ( 48.78%)   0.6985* C   6 s( 24.58%)p 3.07( 75.42%)
                                            0.0000 -0.4958  0.1109 -0.1680  0.8448
                ( 51.22%)  -0.7157* H  20 s(100.00%)
                                           -1.0000
    63. (0.00854) BD*( 1) C   6 - H  21  
                ( 48.58%)   0.6970* C   6 s( 24.90%)p 3.02( 75.10%)
                                            0.0000 -0.4990  0.4175 -0.5990 -0.4668
                ( 51.42%)  -0.7171* H  21 s(100.00%)
                                           -1.0000
    64. (0.00952) BD*( 1) C   7 - H  22  
                ( 48.53%)   0.6966* C   7 s( 24.80%)p 3.03( 75.20%)
                                            0.0000 -0.4980  0.1054 -0.0756  0.8574
                ( 51.47%)  -0.7175* H  22 s(100.00%)
                                           -1.0000
    65. (0.00938) BD*( 1) C   7 - H  23  
                ( 48.83%)   0.6988* C   7 s( 24.86%)p 3.02( 75.14%)
                                            0.0000 -0.4986  0.3053  0.7687 -0.2594
                ( 51.17%)  -0.7153* H  23 s(100.00%)
                                           -1.0000
    66. (0.00750) BD*( 1) O   8 - H  24  
                ( 40.54%)   0.6367* O   8 s( 16.82%)p 4.94( 83.18%)
                                            0.0000  0.4102 -0.3443 -0.8367  0.1145
                ( 59.46%)  -0.7711* H  24 s(100.00%)
                                            1.0000
    67. (0.01048) BD*( 1) C   9 - C  10  
                ( 51.15%)   0.7152* C   9 s( 24.82%)p 3.03( 75.18%)
                                            0.0000  0.4982  0.4274 -0.5761 -0.4871
                ( 48.85%)  -0.6990* C  10 s( 25.79%)p 2.88( 74.21%)
                                            0.0001  0.5078 -0.4536  0.5414  0.4932
    68. (0.01083) BD*( 1) C   9 - C  11  
                ( 50.59%)   0.7113* C   9 s( 25.63%)p 2.90( 74.37%)
                                            0.0000  0.5063  0.2440 -0.0775  0.8235
                ( 49.41%)  -0.7029* C  11 s( 25.86%)p 2.87( 74.14%)
                                            0.0001  0.5085 -0.2970  0.0448 -0.8070
    69. (0.01059) BD*( 1) C   9 - H  25  
                ( 49.10%)   0.7007* C   9 s( 24.08%)p 3.15( 75.92%)
                                            0.0000 -0.4907 -0.1884 -0.8026  0.2820
                ( 50.90%)  -0.7134* H  25 s(100.00%)
                                           -1.0000
    70. (0.00638) BD*( 1) C  10 - H  26  
                ( 48.17%)   0.6940* C  10 s( 24.87%)p 3.02( 75.13%)
                                            0.0000 -0.4987  0.0998  0.8121 -0.2862
                ( 51.83%)  -0.7200* H  26 s(100.00%)
                                           -1.0000
    71. (0.00547) BD*( 1) C  10 - H  27  
                ( 48.34%)   0.6953* C  10 s( 24.71%)p 3.05( 75.29%)
                                            0.0000 -0.4971  0.2766 -0.0498  0.8209
                ( 51.66%)  -0.7187* H  27 s(100.00%)
                                           -1.0000
    72. (0.00487) BD*( 1) C  10 - H  28  
                ( 48.18%)   0.6941* C  10 s( 24.64%)p 3.06( 75.36%)
                                            0.0000 -0.4964 -0.8413 -0.2120 -0.0300
[...]

 Contributions to Isotropic shielding for atom    8 (   357.7492 ppm):
                         Standard Origin              Atomic Origin
 NLMO      Total    Paramagnetic  Diamagnetic   Paramagnetic  Diamagnetic
   10      25.8609        9.7700      16.0910        15.2142      10.6467
   11       0.2576       -0.2402       0.4978        -0.9969       1.2545
   20      -0.7681       -1.1925       0.4244        -1.0908       0.3227
   21      -0.6559       -1.1889       0.5330        -1.5642       0.9083
   22      20.1691       10.8202       9.3488         5.7517      14.4174
   29      -0.2880       -1.2210       0.9329        -0.9218       0.6338
   39     271.1719       -0.0046     271.1765        -0.0039     271.1758
   43      34.3026       -3.1875      37.4902        -3.1320      37.4347
   44       5.4219      -33.5924      39.0144       -34.5130      39.9349
 Sum      355.4721      -20.0369     375.5089       -21.2566     376.7287

 Contributions to Isotropic shielding for atom    9 (   212.5251 ppm):
                         Standard Origin              Atomic Origin
 NLMO      Total    Paramagnetic  Diamagnetic   Paramagnetic  Diamagnetic
   10       0.0922       -0.3036       0.3958        -1.1884       1.2806
   16       5.5505       -9.6784      15.2290        -2.0910       7.6416
   23      -1.7532       -4.9953       3.2421        -9.1445       7.3913
   24      -0.9354       -6.3683       5.4330        -8.6701       7.7347
   25       5.1964       -0.8017       5.9980        -5.6098      10.8061
   26       1.0442       -0.3148       1.3590         0.0188       1.0255
   27       0.6861       -0.6361       1.3223        -0.3463       1.0324
   28       0.6171       -0.3056       0.9228        -0.4153       1.0324
   29       0.8601       -0.3439       1.2040        -0.1906       1.0507
   30       0.6358       -0.5472       1.1830        -0.3729       1.0087
   31       0.6057       -0.1905       0.7962        -0.4214       1.0272
   40     199.9257       -0.0024     199.9282         0.0028     199.9229
 Sum      212.5254      -24.4878     237.0132       -28.4287     240.9541

 Contributions to Isotropic shielding for atom   10 (   221.2544 ppm):
                         Standard Origin              Atomic Origin
 NLMO      Total    Paramagnetic  Diamagnetic   Paramagnetic  Diamagnetic
   23       4.2086      -11.3547      15.5632        -3.8487       8.0573
   24      -0.4953        0.0396      -0.5349        -1.2194       0.7242
   25       0.3036        0.1588       0.1449        -0.7042       1.0079
   26       6.4111       -4.9121      11.3231        -4.7244      11.1355
   27       5.6935       -4.2187       9.9122        -5.3543      11.0478
   28       5.0367        3.2250       1.8117        -6.0626      11.0993
   41     200.0750       -0.0033     200.0783         0.0020     200.0730
 Sum      221.2333      -17.0653     238.2986       -21.9116     243.1449

 Contributions to Isotropic shielding for atom   11 (   223.5079 ppm):
                         Standard Origin              Atomic Origin
 NLMO      Total    Paramagnetic  Diamagnetic   Paramagnetic  Diamagnetic
   10       0.0907       -0.2381       0.3288        -1.0742       1.1649
   23      -0.4333        0.0089      -0.4422        -1.0983       0.6650
   24       4.3003       -9.1151      13.4155        -3.4952       7.7956
   25       0.2958        0.0286       0.2672        -0.7203       1.0161
   29       6.4511       -5.0641      11.5152        -4.9031      11.3541
   30       6.7739       -4.8935      11.6673        -4.3874      11.1612
   31       5.6022        3.9086       1.6935        -5.3784      10.9805
   42     200.0734       -0.0029     200.0763         0.0018     200.0717
 Sum      223.1540      -15.3676     238.5216       -21.0552     244.2092

 Contributions to Isotropic shielding for atom   12 (    32.7092 ppm):
                         Standard Origin              Atomic Origin
 NLMO      Total    Paramagnetic  Diamagnetic   Paramagnetic  Diamagnetic
    1       1.6399       -1.2476       2.8875         0.7388       0.9011
    2      26.3716        0.2707      26.1009         0.4403      25.9313
    3       1.9584        1.7176       0.2408         0.1368       1.8216
    4       1.9431        1.9204       0.0228         0.1152       1.8279
 Sum       31.9131        2.6611      29.2519         1.4311      30.4819

 Contributions to Isotropic shielding for atom   13 (    32.5203 ppm):
                         Standard Origin              Atomic Origin
 NLMO      Total    Paramagnetic  Diamagnetic   Paramagnetic  Diamagnetic
    1       1.4873       -0.7750       2.2623         0.4806       1.0067
    2       1.9173        1.5553       0.3620         0.0795       1.8378
    3      26.3821        0.1718      26.2103         0.4257      25.9564
    4       1.9069        2.2606      -0.3537         0.0646       1.8424
    6      -0.1279        0.6967      -0.8246        -1.0370       0.9091
 Sum       31.5658        3.9095      27.6563         0.0134      31.5524

 Contributions to Isotropic shielding for atom   14 (    32.4046 ppm):
                         Standard Origin              Atomic Origin
 NLMO      Total    Paramagnetic  Diamagnetic   Paramagnetic  Diamagnetic
    1       1.4411       -0.6014       2.0426         0.4291       1.0120
    2       1.9026        1.6991       0.2035         0.0641       1.8385
    3       1.9076        2.2025      -0.2949         0.0730       1.8346
    4      26.3357        0.1376      26.1981         0.4378      25.8979
    5      -0.1526        0.7860      -0.9386        -1.0645       0.9119
 Sum       31.4344        4.2238      27.2106        -0.0605      31.4949

 Contributions to Isotropic shielding for atom   15 (    32.3962 ppm):
                         Standard Origin              Atomic Origin
 NLMO      Total    Paramagnetic  Diamagnetic   Paramagnetic  Diamagnetic
    1       0.7642        2.1178      -1.3536        -0.1866       0.9508
    3       0.2647       -0.9806       1.2453        -0.6965       0.9612
    4       0.2602       -0.9546       1.2148        -0.7006       0.9608
    5       1.4850        0.3268       1.1581         0.5932       0.8918
    6       1.5224        0.0674       1.4549         0.6598       0.8625
    7      26.2990        0.0954      26.2035         0.3784      25.9205
   10       0.0122       -0.2132       0.2254        -1.1976       1.2098
 Sum       30.6076        0.4591      30.1485        -1.1498      31.7575

 Contributions to Isotropic shielding for atom   16 (    31.9301 ppm):
                         Standard Origin              Atomic Origin
 NLMO      Total    Paramagnetic  Diamagnetic   Paramagnetic  Diamagnetic
    8       0.9673        0.2672       0.7001        -0.1828       1.1502
   10       0.6768        0.9827      -0.3059        -0.8674       1.5442
   11      26.8027        0.3446      26.4581         0.7817      26.0209
   20       0.2159       -0.3881       0.6041        -0.7948       1.0107
   26      -0.2987       -1.4948       1.1961        -0.9950       0.6964
 Sum       28.3641       -0.2884      28.6525        -2.0584      30.4225

 Contributions to Isotropic shielding for atom   17 (    32.4882 ppm):
                         Standard Origin              Atomic Origin
 NLMO      Total    Paramagnetic  Diamagnetic   Paramagnetic  Diamagnetic
   12       1.3100        0.6225       0.6874         0.3804       0.9296
   13       1.0302        1.3801      -0.3500         0.0312       0.9990
   14      26.4980        0.0695      26.4285         0.4678      26.0303
   15       2.1168        1.2362       0.8805         0.3533       1.7635
   18       0.2024       -0.3568       0.5592        -0.8040       1.0064
 Sum       31.1574        2.9516      28.2057         0.4287      30.7287

 Contributions to Isotropic shielding for atom   18 (    32.1000 ppm):
                         Standard Origin              Atomic Origin
 NLMO      Total    Paramagnetic  Diamagnetic   Paramagnetic  Diamagnetic
   10       0.1403       -0.5156       0.6559        -1.2364       1.3767
   12       1.3392       -0.0242       1.3634         0.4736       0.8656
   13       1.1297        0.7845       0.3453         0.1726       0.9571
   14       1.9820        1.4158       0.5662         0.2353       1.7467
   15      26.2171        0.2088      26.0083         0.4202      25.7969
   24       0.0078       -0.6773       0.6851        -1.0183       1.0261
   30      -0.4017       -1.4491       1.0474        -0.8627       0.4610
   43      -0.5805        0.1313      -0.7118         0.5044      -1.0849
 Sum       29.8340       -0.1258      29.9599        -1.3112      31.1453

 Contributions to Isotropic shielding for atom   19 (    32.7579 ppm):
                         Standard Origin              Atomic Origin
 NLMO      Total    Paramagnetic  Diamagnetic   Paramagnetic  Diamagnetic
    8       1.4050        0.7459       0.6591         0.4940       0.9110
   12       1.2266        0.8126       0.4140         0.2203       1.0063
   16       1.0599        1.3524      -0.2925        -0.0771       1.1371
   17      26.5448        0.0270      26.5178         0.4322      26.1125
   27      -0.1424       -1.4651       1.3227        -1.0188       0.8764
 Sum       30.0938        1.4728      28.6210         0.0506      30.0433

 Contributions to Isotropic shielding for atom   20 (    32.7892 ppm):
                         Standard Origin              Atomic Origin
 NLMO      Total    Paramagnetic  Diamagnetic   Paramagnetic  Diamagnetic
    2      -0.0394       -1.3023       1.2629        -0.9382       0.8988
    5       1.2119        0.6877       0.5242         0.3717       0.8402
   13       1.3514        0.1079       1.2435         0.4200       0.9314
   18      26.5533        0.1601      26.3932         0.4470      26.1063
   19       1.9580        1.9631      -0.0051         0.2072       1.7508
 Sum       31.0352        1.6165      29.4187         0.5077      30.5275

 Contributions to Isotropic shielding for atom   21 (    32.2964 ppm):
                         Standard Origin              Atomic Origin
 NLMO      Total    Paramagnetic  Diamagnetic   Paramagnetic  Diamagnetic
    4      -0.0835       -1.4275       1.3440        -0.9659       0.8824
    5       1.0259        1.1460      -0.1201         0.1047       0.9212
   13       1.2100        0.6612       0.5488         0.1931       1.0169
   15       0.1819        0.1233       0.0586        -0.8398       1.0216
   18       1.9558        1.6848       0.2710         0.2161       1.7396
   19      26.4834        0.0233      26.4601         0.4874      25.9960
 Sum       30.7734        2.2109      28.5625        -0.8044      31.5778

 Contributions to Isotropic shielding for atom   22 (    32.7320 ppm):
                         Standard Origin              Atomic Origin
 NLMO      Total    Paramagnetic  Diamagnetic   Paramagnetic  Diamagnetic
    2      -0.0382       -1.3842       1.3460        -0.9356       0.8974
    6       1.1408        0.8773       0.2636         0.2444       0.8964
    9       1.4533        0.1904       1.2629         0.6030       0.8503
   20      26.4299        0.2069      26.2231         0.4694      25.9606
   21       1.8870        1.6327       0.2543         0.1583       1.7287
 Sum       30.8728        1.5231      29.3497         0.5394      30.3334

 Contributions to Isotropic shielding for atom   23 (    32.8170 ppm):
                         Standard Origin              Atomic Origin
 NLMO      Total    Paramagnetic  Diamagnetic   Paramagnetic  Diamagnetic
    3      -0.0861       -1.5053       1.4192        -0.9715       0.8854
    6       1.0112        1.2530      -0.2418        -0.0197       1.0309
    9       1.3194        0.5273       0.7921         0.4264       0.8930
   10      -0.1868        0.2650      -0.4518        -1.3739       1.1871
   20       1.9755        1.4846       0.4909         0.2433       1.7322
   21      26.5876        0.1002      26.4875         0.4807      26.1069
 Sum       30.6209        2.1248      28.4961        -1.2146      31.8355

 Contributions to Isotropic shielding for atom   24 (    35.2412 ppm):
                         Standard Origin              Atomic Origin
 NLMO      Total    Paramagnetic  Diamagnetic   Paramagnetic  Diamagnetic
    9      -0.1510        0.1208      -0.2718        -1.1271       0.9761
   10       1.4614        2.5892      -1.1278         0.7473       0.7141
   11       0.2071        0.1216       0.0855        -0.8088       1.0159
   21      -0.1228       -0.7943       0.6715        -1.0033       0.8805
   22      23.0699       -0.5550      23.6249        -0.1162      23.1861
   43       4.1226        0.6296       3.4929         2.1836       1.9390
   44       5.6228        2.4726       3.1502         2.4571       3.1658
 Sum       34.2100        4.5846      29.6254         2.3327      31.8773

 Contributions to Isotropic shielding for atom   25 (    32.4231 ppm):
                         Standard Origin              Atomic Origin
 NLMO      Total    Paramagnetic  Diamagnetic   Paramagnetic  Diamagnetic
   12      -0.0823        0.3319      -0.4142        -1.0342       0.9519
   16       1.6662        0.0722       1.5940         0.6060       1.0602
   23       0.8447        2.0887      -1.2440        -0.1516       0.9963
   24       0.9472        1.7143      -0.7671        -0.1463       1.0936
   25      26.5734       -0.1565      26.7299         0.4400      26.1334
   28       0.2170       -0.5472       0.7642        -0.7838       1.0008
 Sum       30.1662        3.5034      26.6628        -1.0700      31.2362

 Contributions to Isotropic shielding for atom   26 (    32.4215 ppm):
                         Standard Origin              Atomic Origin
 NLMO      Total    Paramagnetic  Diamagnetic   Paramagnetic  Diamagnetic
    8      -0.1252        0.1716      -0.2968        -1.1399       1.0148
   10      -0.0024        0.0500      -0.0523        -1.0626       1.0602
   23       1.5593       -1.0507       2.6101         0.6250       0.9344
   24      -0.1386        0.2454      -0.3840        -1.0524       0.9138
   26      26.3224        0.2905      26.0318         0.3997      25.9227
   27       2.0313        0.6512       1.3801         0.2259       1.8054
   28       1.9034        2.0731      -0.1696         0.0576       1.8458
 Sum       31.5502        2.4311      29.1192        -1.9468      33.4971

 Contributions to Isotropic shielding for atom   27 (    32.5861 ppm):
                         Standard Origin              Atomic Origin
 NLMO      Total    Paramagnetic  Diamagnetic   Paramagnetic  Diamagnetic
   16      -0.0393        0.0824      -0.1217        -1.0149       0.9756
   23       1.5692       -0.7838       2.3530         0.5565       1.0127
   26       2.0612        0.6112       1.4500         0.2354       1.8258
   27      26.4245        0.2805      26.1440         0.4141      26.0104
   28       1.9138        2.2703      -0.3565         0.0718       1.8420
 Sum       31.9295        2.4607      29.4688         0.2630      31.6665

 Contributions to Isotropic shielding for atom   28 (    32.3653 ppm):
                         Standard Origin              Atomic Origin
 NLMO      Total    Paramagnetic  Diamagnetic   Paramagnetic  Diamagnetic
   23       1.2081        0.5147       0.6934         0.1787       1.0294
   24      -0.1592        0.7161      -0.8753        -1.1160       0.9568
   26       1.9674        1.6745       0.2929         0.1094       1.8580
   27       1.9325        1.8899       0.0426         0.0920       1.8405
   28      26.3642       -0.0107      26.3749         0.4425      25.9217
 Sum       31.3130        4.7845      26.5285        -0.2934      31.6064

 Contributions to Isotropic shielding for atom   29 (    32.1599 ppm):
                         Standard Origin              Atomic Origin
 NLMO      Total    Paramagnetic  Diamagnetic   Paramagnetic  Diamagnetic
    8      -0.0998        0.0573      -0.1571        -1.0020       0.9022
   23      -0.1295        0.1206      -0.2502        -1.0238       0.8942
   24       1.4860       -0.6048       2.0909         0.5765       0.9096
   29      26.0312        0.2972      25.7340         0.4068      25.6245
   30       2.1122        0.4055       1.7067         0.2941       1.8180
   31       1.9336        2.1081      -0.1745         0.0799       1.8537
   43      -0.5121       -0.1177      -0.3944         0.6417      -1.1538
 Sum       30.8216        2.2663      28.5553        -0.0268      30.8484

 Contributions to Isotropic shielding for atom   30 (    32.3110 ppm):
                         Standard Origin              Atomic Origin
 NLMO      Total    Paramagnetic  Diamagnetic   Paramagnetic  Diamagnetic
   12      -0.0756        0.0782      -0.1538        -1.0737       0.9981
   24       1.4955       -0.7294       2.2249         0.5177       0.9778
   29       2.1185        0.3891       1.7293         0.2585       1.8599
   30      26.2649        0.2667      25.9982         0.3729      25.8920
   31       1.9067        2.0182      -0.1115         0.0581       1.8486
 Sum       31.7099        2.0228      29.6872         0.1336      31.5764

 Contributions to Isotropic shielding for atom   31 (    32.5741 ppm):
                         Standard Origin              Atomic Origin
 NLMO      Total    Paramagnetic  Diamagnetic   Paramagnetic  Diamagnetic
   23      -0.1514        0.6116      -0.7630        -1.0877       0.9362
   24       1.1429        0.9138       0.2291         0.1302       1.0127
   29       2.0097        1.7260       0.2837         0.1123       1.8975
   30       2.0424        1.6911       0.3513         0.1616       1.8808
   31      26.4650       -0.0557      26.5207         0.4095      26.0555
 Sum       31.5086        4.8868      26.6218        -0.2740      31.7826
 
 1\1\GINC-COMPUTE-10-4\SP\RHF\STO-3G\C10H20O1\YTSAI.IQUIR\03-Aug-2021\0
 \\# rhf/STO-3G nmr pop=nbo\\comment\\0,1\C,0,-0.973323623,-2.0660857,-
 2.895334069\C,0,-0.785660718,-1.431173305,-1.518251534\C,0,0.936371699
 ,-0.540770685,0.137529875\C,0,-1.317324568,0.593395879,-0.085367468\C,
 0,0.183231861,0.805771336,0.19764245\C,0,-1.540412383,-0.099176294,-1.
 430214799\C,0,0.707595424,-1.235120534,-1.211649067\O,0,0.499169838,-1
 .40843639,1.178467753\C,0,0.409022023,1.652491563,1.485024373\C,0,1.88
 5474419,2.022853849,1.664954427\C,0,-0.125090663,1.044751344,2.7840314
 48\H,0,-0.570687127,-1.426207563,-3.687865157\H,0,-0.46326103,-3.03361
 685,-2.949296182\H,0,-2.035123869,-2.235091963,-3.103272203\H,0,-1.209
 158241,-2.118216829,-0.773796675\H,0,2.011182666,-0.379716348,0.270476
 532\H,0,-1.836498574,1.559160223,-0.092872195\H,0,-1.780014404,-0.0123
 03866,0.702048056\H,0,0.572037919,1.41607233,-0.631930776\H,0,-1.21509
 0756,0.56924508,-2.237758955\H,0,-2.614220928,-0.268905972,-1.57418348
 6\H,0,1.175238046,-0.640507758,-2.006720086\H,0,1.200092662,-2.2155272
 48,-1.207311619\H,0,1.013850502,-2.230701957,1.112557618\H,0,-0.133017
 529,2.59700853,1.335661963\H,0,2.494499206,1.150775353,1.923101774\H,0
 ,2.292036472,2.468658169,0.751247215\H,0,2.001575488,2.756119008,2.470
 673144\H,0,0.439692209,0.158652387,3.086639301\H,0,-1.181615122,0.7757
 09452,2.704854311\H,0,-0.0405709,1.77089476,3.600914031\\Version=EM64L
 -G09RevC.01\State=1-A\HF=-459.6221186\RMSD=6.324e-09\Dipole=0.3251804,
 -0.118261,-0.3583383\Quadrupole=0.5692278,1.4927447,-2.0619725,-1.5258
 211,0.1507466,-0.0902341\PG=C01 [X(C10H20O1)]\\@


 TWO ROADS DIVERGED IN A WOOD, AND I--
 I TOOK THE ONE LESS TRAVELED BY,
 AND THAT HAS MADE ALL THE DIFFERENCE.

                       -- ROBERT FROST
 Job cpu time:  0 days  0 hours  0 minutes 30.4 seconds.
 File lengths (MBytes):  RWF=      5 Int=      0 D2E=      0 Chk=      1 Scr=      1
 Normal termination of Gaussian 09 at Tue Aug  3 16:37:58 2021.
