 Entering Gaussian System, Link 0=g09
 Input=/home/ytsai.iquir/menthol/04_menthol_M0073_MMFF_NMR_rhf_STO-3G_nbo.gjc
 Output=/home/ytsai.iquir/menthol/04_menthol_M0073_MMFF_NMR_rhf_STO-3G_nbo.log
 Initial command:
 /share/apps/Gaussian09/EM64T.SSE4.2-enabled/g09/l1.exe /tmp/Gau-15109.inp -scrdir=/tmp/
 Entering Link 1 = /share/apps/Gaussian09/EM64T.SSE4.2-enabled/g09/l1.exe PID=     15110.
  
 Copyright (c) 1988,1990,1992,1993,1995,1998,2003,2009,2011,
            Gaussian, Inc.  All Rights Reserved.
  
 This is part of the Gaussian(R) 09 program.  It is based on
 the Gaussian(R) 03 system (copyright 2003, Gaussian, Inc.),
 the Gaussian(R) 98 system (copyright 1998, Gaussian, Inc.),
 the Gaussian(R) 94 system (copyright 1995, Gaussian, Inc.),
 the Gaussian 92(TM) system (copyright 1992, Gaussian, Inc.),
 the Gaussian 90(TM) system (copyright 1990, Gaussian, Inc.),
 the Gaussian 88(TM) system (copyright 1988, Gaussian, Inc.),
 the Gaussian 86(TM) system (copyright 1986, Carnegie Mellon
 University), and the Gaussian 82(TM) system (copyright 1983,
 Carnegie Mellon University). Gaussian is a federally registered
 trademark of Gaussian, Inc.
  
 This software contains proprietary and confidential information,
 including trade secrets, belonging to Gaussian, Inc.
  
 This software is provided under written license and may be
 used, copied, transmitted, or stored only in accord with that
 written license.
  
 The following legend is applicable only to US Government
 contracts under FAR:
  
                    RESTRICTED RIGHTS LEGEND
  
 Use, reproduction and disclosure by the US Government is
 subject to restrictions as set forth in subparagraphs (a)
 and (c) of the Commercial Computer Software - Restricted
 Rights clause in FAR 52.227-19.
  
 Gaussian, Inc.
 340 Quinnipiac St., Bldg. 40, Wallingford CT 06492
  
  
 ---------------------------------------------------------------
 Warning -- This program may not be used in any manner that
 competes with the business of Gaussian, Inc. or will provide
 assistance to any competitor of Gaussian, Inc.  The licensee
 of this program is prohibited from giving any competitor of
 Gaussian, Inc. access to this program.  By using this program,
 the user acknowledges that Gaussian, Inc. is engaged in the
 business of creating and licensing software in the field of
 computational chemistry and represents and warrants to the
 licensee that it is not a competitor of Gaussian, Inc. and that
 it will not use this program in any manner prohibited above.
 ---------------------------------------------------------------
  

 Cite this work as:
 Gaussian 09, Revision C.01,
 M. J. Frisch, G. W. Trucks, H. B. Schlegel, G. E. Scuseria, 
 M. A. Robb, J. R. Cheeseman, G. Scalmani, V. Barone, B. Mennucci, 
 G. A. Petersson, H. Nakatsuji, M. Caricato, X. Li, H. P. Hratchian, 
 A. F. Izmaylov, J. Bloino, G. Zheng, J. L. Sonnenberg, M. Hada, 
 M. Ehara, K. Toyota, R. Fukuda, J. Hasegawa, M. Ishida, T. Nakajima, 
 Y. Honda, O. Kitao, H. Nakai, T. Vreven, J. A. Montgomery, Jr., 
 J. E. Peralta, F. Ogliaro, M. Bearpark, J. J. Heyd, E. Brothers, 
 K. N. Kudin, V. N. Staroverov, T. Keith, R. Kobayashi, J. Normand, 
 K. Raghavachari, A. Rendell, J. C. Burant, S. S. Iyengar, J. Tomasi, 
 M. Cossi, N. Rega, J. M. Millam, M. Klene, J. E. Knox, J. B. Cross, 
 V. Bakken, C. Adamo, J. Jaramillo, R. Gomperts, R. E. Stratmann, 
 O. Yazyev, A. J. Austin, R. Cammi, C. Pomelli, J. W. Ochterski, 
 R. L. Martin, K. Morokuma, V. G. Zakrzewski, G. A. Voth, 
 P. Salvador, J. J. Dannenberg, S. Dapprich, A. D. Daniels, 
 O. Farkas, J. B. Foresman, J. V. Ortiz, J. Cioslowski, 
 and D. J. Fox, Gaussian, Inc., Wallingford CT, 2010.
 
 ******************************************
 Gaussian 09:  EM64L-G09RevC.01 23-Sep-2011
                24-May-2020 
 ******************************************
 %nprocshared=4
 Will use up to    4 processors via shared memory.
 ------------------------
 # rhf/STO-3G nmr pop=nbo
 ------------------------
 1/38=1/1;
 2/12=2,17=6,18=5,40=1/2;
 3/6=3,11=1,16=1,25=1,30=1,116=1/1,2,8,3;
 4//1;
 5/5=2,38=5/2;
 8/6=1,10=90,11=11/1;
 10/13=100,45=16/2;
 6/7=2,8=2,9=2,10=2,28=1,64=1/1,7;
 99/9=1/99;
 -------
 comment
 -------
 Charge =  0 Multiplicity = 1
 Symbolic Z-Matrix:
 6                     0.20908   0.78426  -3.39694 
 6                    -0.53848   0.35129  -2.1349 
 6                     1.04     -0.19237  -0.20756 
 6                    -1.09574   1.16193   0.1916 
 6                     0.15423   0.52381   0.84745 
 6                    -0.83654   1.57387  -1.25218 
 6                     0.22742  -0.74769  -1.37871 
 8                     1.83414  -1.22177   0.36037 
 6                    -0.25649  -0.26335   2.12855 
 6                     0.89957  -0.41627   3.12445 
 6                    -0.90208  -1.6247    1.85939 
 1                    -0.35439   1.55201  -3.93774 
 1                     1.19596   1.19306  -3.15511 
 1                     0.35136  -0.06431  -4.07447 
 1                    -1.49464  -0.08123  -2.45877 
 1                     1.74622   0.54713  -0.60787 
 1                    -1.39855   2.04018   0.77496 
 1                    -1.9465    0.4713    0.21093 
 1                     0.76295   1.3687    1.20444 
 1                    -0.00173   2.28603  -1.27801 
 1                    -1.70949   2.10513  -1.6501 
 1                     0.87502  -1.31531  -2.0587 
 1                    -0.48765  -1.48706  -0.99615 
 1                     2.39149  -1.59148  -0.34528 
 1                    -1.01082   0.34668   2.64598 
 1                     1.67002  -1.10686   2.77336 
 1                     1.37225   0.55036   3.32722 
 1                     0.52765  -0.80516   4.07916 
 1                    -0.19786  -2.33577   1.41858 
 1                    -1.76269  -1.53785   1.19035 
 1                    -1.26373  -2.06455   2.79571 
 
                          Input orientation:                          
 ---------------------------------------------------------------------
 Center     Atomic      Atomic             Coordinates (Angstroms)
 Number     Number       Type             X           Y           Z
 ---------------------------------------------------------------------
      1          6           0        0.209080    0.784262   -3.396944
      2          6           0       -0.538477    0.351286   -2.134899
      3          6           0        1.040004   -0.192371   -0.207564
      4          6           0       -1.095741    1.161931    0.191598
      5          6           0        0.154234    0.523811    0.847451
      6          6           0       -0.836536    1.573872   -1.252177
      7          6           0        0.227418   -0.747690   -1.378707
      8          8           0        1.834144   -1.221766    0.360368
      9          6           0       -0.256490   -0.263350    2.128546
     10          6           0        0.899571   -0.416269    3.124454
     11          6           0       -0.902080   -1.624702    1.859387
     12          1           0       -0.354390    1.552007   -3.937737
     13          1           0        1.195957    1.193062   -3.155110
     14          1           0        0.351358   -0.064313   -4.074466
     15          1           0       -1.494638   -0.081231   -2.458774
     16          1           0        1.746224    0.547133   -0.607872
     17          1           0       -1.398552    2.040178    0.774960
     18          1           0       -1.946497    0.471302    0.210931
     19          1           0        0.762946    1.368700    1.204445
     20          1           0       -0.001727    2.286027   -1.278010
     21          1           0       -1.709485    2.105131   -1.650100
     22          1           0        0.875019   -1.315311   -2.058698
     23          1           0       -0.487650   -1.487064   -0.996147
     24          1           0        2.391493   -1.591485   -0.345284
     25          1           0       -1.010815    0.346684    2.645979
     26          1           0        1.670017   -1.106859    2.773359
     27          1           0        1.372245    0.550359    3.327216
     28          1           0        0.527652   -0.805161    4.079157
     29          1           0       -0.197864   -2.335775    1.418582
     30          1           0       -1.762695   -1.537847    1.190350
     31          1           0       -1.263727   -2.064552    2.795706
 ---------------------------------------------------------------------
                    Distance matrix (angstroms):
                    1          2          3          4          5
     1  C    0.000000
     2  C    1.529400   0.000000
     3  C    3.437497   2.549860   0.000000
     4  C    3.837033   2.525921   2.560248   0.000000
     5  C    4.252732   3.066598   1.552598   1.549121   0.000000
     6  C    2.513329   1.537125   2.780689   1.523603   2.548075
     7  C    2.533868   1.538236   1.529788   2.804150   2.564732
     8  O    4.558769   3.785523   1.418753   3.780836   2.471111
     9  C    5.643162   4.316741   2.672703   2.547064   1.558692
    10  C    6.666834   5.506171   3.342484   3.882477   2.573717
    11  C    5.887852   4.471136   3.177349   3.253360   2.599216
    12  H    1.095166   2.173901   4.347572   4.213451   4.920763
    13  H    1.095229   2.181210   3.260640   4.056267   4.189699
    14  H    1.095153   2.174040   3.929830   4.668733   4.960848
    15  H    2.128825   1.098276   3.391859   2.954495   3.743792
    16  H    3.193425   2.755000   1.098116   3.015608   2.157068
    17  H    4.643983   3.472659   3.449084   1.096961   2.171582
    18  H    4.214405   2.738584   3.087845   1.095960   2.195674
    19  H    4.671307   3.725594   2.123081   2.126812   1.100823
    20  H    2.605690   2.183022   2.893703   2.149466   2.765377
    21  H    2.911538   2.163854   3.862527   2.158277   3.494536
    22  H    2.577321   2.186624   2.171385   3.883871   3.513916
    23  H    3.377600   2.163070   2.152166   2.966089   2.802586
    24  H    4.440690   3.944845   1.950130   4.475526   3.301881
    25  H    6.180334   4.804156   3.555157   2.587629   2.150213
    26  H    6.616896   5.576256   3.181055   4.411612   2.943774
    27  H    6.828030   5.790095   3.627217   4.036964   2.762878
    28  H    7.649826   6.410031   4.360504   4.649514   3.514191
    29  H    5.752349   4.468058   2.961562   3.813872   2.937243
    30  H    5.506664   4.015572   3.408752   2.954849   2.835953
    31  H    6.973794   5.538332   4.222779   4.149673   3.536373
                    6          7          8          9         10
     6  C    0.000000
     7  C    2.556884   0.000000
     8  O    4.189084   2.414684   0.000000
     9  C    3.891159   3.573454   2.900994   0.000000
    10  C    5.111714   4.565095   3.026950   1.533524   0.000000
    11  C    4.462847   3.539799   3.145845   1.530527   2.511305
    12  H    2.728585   3.489375   5.563920   6.332843   7.437814
    13  H    2.810195   2.803603   4.312454   5.669899   6.489277
    14  H    3.472760   2.783789   4.817271   6.235900   7.228338
    15  H    2.151358   2.139203   4.508789   4.754964   6.084154
    16  H    2.853063   2.139514   2.018470   3.486506   3.946545
    17  H    2.154666   3.879983   4.611127   2.905639   4.103124
    18  H    2.142045   2.956145   4.145125   2.659527   4.168513
    19  H    2.938609   3.382095   2.927532   2.134665   2.625112
    20  H    1.097606   3.044025   4.284777   4.262493   5.243704
    21  H    1.096641   3.458878   5.259994   4.690316   5.996749
    22  H    3.453589   1.097255   2.603949   4.463177   5.260603
    23  H    3.091375   1.097429   2.702082   3.363720   4.477760
    24  H    4.611085   2.542277   0.972252   3.859480   3.955508
    25  H    4.090474   4.350744   3.972134   1.099493   2.112016
    26  H    5.447391   4.410187   2.421295   2.199709   1.092598
    27  H    5.186244   5.014108   3.486541   2.179842   1.094944
    28  H    5.995326   5.466418   3.963568   2.171019   1.095910
    29  H    4.777676   3.244643   2.547526   2.191445   2.792645
    30  H    4.062819   3.344392   3.704866   2.184767   3.476544
    31  H    5.459484   4.624215   4.029636   2.168861   2.739484
                   11         12         13         14         15
    11  C    0.000000
    12  H    6.633106   0.000000
    13  H    6.122641   1.773393   0.000000
    14  H    6.262311   1.768973   1.771879   0.000000
    15  H    4.623845   2.480920   3.057451   2.453253   0.000000
    16  H    4.221107   4.063294   2.684854   3.786396   3.784688
    17  H    3.854064   4.851608   4.784823   5.568482   3.868674
    18  H    2.863817   4.573202   4.661136   4.891998   2.763474
    19  H    3.487365   5.265366   4.384526   5.485420   4.540722
    20  H    5.093888   2.781602   2.480428   3.670005   3.037581
    21  H    5.184598   2.715790   3.396840   3.851119   2.341003
    22  H    4.313374   3.641943   2.756276   2.429514   2.701535
    23  H    2.888732   4.231627   3.831283   3.493452   2.264878
    24  H    3.963496   5.507008   4.132569   4.516769   4.674369
    25  H    2.125303   6.725252   6.264090   6.869411   5.145454
    26  H    2.778343   7.497107   6.376607   7.051133   6.200175
    27  H    3.472459   7.534197   6.516495   7.496995   6.488113
    28  H    2.764627   8.402669   7.534862   8.189109   6.881735
    29  H    1.093551   6.620386   5.942566   5.969486   4.668885
    30  H    1.093532   6.150431   5.924062   5.861639   3.938234
    31  H    1.095878   7.697119   7.216253   7.335442   5.621071
                   16         17         18         19         20
    16  H    0.000000
    17  H    3.745801   0.000000
    18  H    3.783170   1.754920   0.000000
    19  H    2.219527   2.303782   3.022164   0.000000
    20  H    2.555029   2.495244   3.048328   2.754777   0.000000
    21  H    3.931352   2.445774   2.487772   3.847554   1.757161
    22  H    2.516464   4.945508   4.037840   4.226651   3.787849
    23  H    3.046130   4.050678   2.724053   3.816016   3.814680
    24  H    2.249224   5.367342   4.835557   3.717057   4.651083
    25  H    4.269542   2.553228   2.611606   2.503750   4.491881
    26  H    3.764867   4.828411   4.704870   3.068006   5.542562
    27  H    3.952821   4.051036   4.553190   2.355225   5.109643
    28  H    5.028107   4.766964   4.765915   3.611787   6.207651
    29  H    4.024568   4.583106   3.520769   3.833033   5.354543
    30  H    4.460185   3.620416   2.242704   3.850594   4.880146
    31  H    5.240710   4.577160   3.684805   4.292636   6.092236
                   21         22         23         24         25
    21  H    0.000000
    22  H    4.306512   0.000000
    23  H    3.850247   1.736485   0.000000
    24  H    5.673230   2.304724   2.953640   0.000000
    25  H    4.694312   5.334096   4.111132   4.927458   0.000000
    26  H    6.426890   4.901454   4.359961   3.237487   3.052192
    27  H    6.057067   5.721541   5.128526   4.371913   2.486875
    28  H    6.804335   6.168807   5.220588   4.864965   2.397422
    29  H    5.605663   3.779405   2.575889   3.220242   3.059898
    30  H    4.619770   4.190867   2.531617   4.429258   2.497125
    31  H    6.111476   5.357316   3.913302   4.842545   2.429082
                   26         27         28         29         30
    26  H    0.000000
    27  H    1.772512   0.000000
    28  H    1.761001   1.765273   0.000000
    29  H    2.614313   3.799723   3.154015   0.000000
    30  H    3.804626   4.330665   3.758687   1.771292   0.000000
    31  H    3.086183   3.750815   2.538179   1.762412   1.761691
                   31
    31  H    0.000000
 Stoichiometry    C10H20O
 Framework group  C1[X(C10H20O)]
 Deg. of freedom    87
 Full point group                 C1      NOp   1
 Largest Abelian subgroup         C1      NOp   1
 Largest concise Abelian subgroup C1      NOp   1
                         Standard orientation:                         
 ---------------------------------------------------------------------
 Center     Atomic      Atomic             Coordinates (Angstroms)
 Number     Number       Type             X           Y           Z
 ---------------------------------------------------------------------
      1          6           0        3.478810    0.462126   -0.125783
      2          6           0        2.216190   -0.159010    0.473422
      3          6           0        0.083246    0.876140   -0.465085
      4          6           0        0.280090   -1.656942   -0.149466
      5          6           0       -0.638789   -0.492172   -0.595279
      6          6           0        1.752780   -1.346164   -0.386038
      7          6           0        1.111332    0.893487    0.667606
      8          8           0       -0.824524    1.955370   -0.309923
      9          6           0       -2.051151   -0.649462    0.045043
     10          6           0       -3.146289    0.065172   -0.755997
     11          6           0       -2.130027   -0.245967    1.519317
     12          1           0        4.265093   -0.291458   -0.240929
     13          1           0        3.279401    0.899411   -1.109930
     14          1           0        3.867952    1.253660    0.523371
     15          1           0        2.484306   -0.538060    1.468734
     16          1           0        0.616057    1.063352   -1.406850
     17          1           0        0.003367   -2.563945   -0.700914
     18          1           0        0.137327   -1.886821    0.912562
     19          1           0       -0.789216   -0.633334   -1.676600
     20          1           0        1.909341   -1.139712   -1.452624
     21          1           0        2.361846   -2.226544   -0.148151
     22          1           0        1.539438    1.897460    0.780436
     23          1           0        0.596258    0.703987    1.617942
     24          1           0       -0.307022    2.777951   -0.281202
     25          1           0       -2.302665   -1.718712   -0.003224
     26          1           0       -3.078013    1.153370   -0.685761
     27          1           0       -3.102642   -0.213485   -1.813990
     28          1           0       -4.136084   -0.221354   -0.382863
     29          1           0       -1.976295    0.827211    1.662530
     30          1           0       -1.391534   -0.779895    2.123769
     31          1           0       -3.117870   -0.489280    1.926641
 ---------------------------------------------------------------------
 Rotational constants (GHZ):      1.8820722      0.7207375      0.6297886
 Standard basis: STO-3G (5D, 7F)
 There are    75 symmetry adapted basis functions of A   symmetry.
 Integral buffers will be    131072 words long.
 Raffenetti 1 integral format.
 Two-electron integral symmetry is turned on.
    75 basis functions,   225 primitive gaussians,    75 cartesian basis functions
    44 alpha electrons       44 beta electrons
       nuclear repulsion energy       698.1591426193 Hartrees.
 NAtoms=   31 NActive=   31 NUniq=   31 SFac= 1.00D+00 NAtFMM=   60 NAOKFM=F Big=F
 One-electron integrals computed using PRISM.
 NBasis=    75 RedAO= T  NBF=    75
 NBsUse=    75 1.00D-06 NBFU=    75
 Harris functional with IExCor=  205 diagonalized for initial guess.
 ExpMin= 1.69D-01 ExpMax= 1.31D+02 ExpMxC= 1.31D+02 IAcc=1 IRadAn=         1 AccDes= 0.00D+00
 HarFok:  IExCor=  205 AccDes= 0.00D+00 IRadAn=         1 IDoV= 1
 ScaDFX=  1.000000  1.000000  1.000000  1.000000
 FoFCou: FMM=F IPFlag=           0 FMFlag=      100000 FMFlg1=           0
         NFxFlg=           0 DoJE=T BraDBF=F KetDBF=T FulRan=T
         Omega=  0.000000  0.000000  1.000000  0.000000  0.000000 ICntrl=     500 IOpCl=  0
         NMat0=    1 NMatS0=    1 NMatT0=    0 NMatD0=    1 NMtDS0=    0 NMtDT0=    0
         I1Cent=           4 NGrid=           0.
 Petite list used in FoFCou.
 Initial guess orbital symmetries:
       Occupied  (A) (A) (A) (A) (A) (A) (A) (A) (A) (A) (A) (A)
                 (A) (A) (A) (A) (A) (A) (A) (A) (A) (A) (A) (A)
                 (A) (A) (A) (A) (A) (A) (A) (A) (A) (A) (A) (A)
                 (A) (A) (A) (A) (A) (A) (A) (A)
       Virtual   (A) (A) (A) (A) (A) (A) (A) (A) (A) (A) (A) (A)
                 (A) (A) (A) (A) (A) (A) (A) (A) (A) (A) (A) (A)
                 (A) (A) (A) (A) (A) (A) (A)
 The electronic state of the initial guess is 1-A.
 Requested convergence on RMS density matrix=1.00D-08 within 128 cycles.
 Requested convergence on MAX density matrix=1.00D-06.
 Requested convergence on             energy=1.00D-06.
 No special actions if energy rises.
 Keep R1 ints in memory in canonical form, NReq=4898789.
 SCF Done:  E(RHF) =  -459.608311578     A.U. after   10 cycles
             Convg  =    0.7349D-08             -V/T =  2.0089
 Range of M.O.s used for correlation:     1    75
 NBasis=    75 NAE=    44 NBE=    44 NFC=     0 NFV=     0
 NROrb=     75 NOA=    44 NOB=    44 NVA=    31 NVB=    31
          Differentiating once with respect to magnetic field using GIAOs.
          Electric field/nuclear overlap derivatives assumed to be zero.
          Keep R3 ints in memory in canonical form, NReq=4863575.
 FoFCou: FMM=F IPFlag=           0 FMFlag=           0 FMFlg1=           0
         NFxFlg=           0 DoJE=F BraDBF=F KetDBF=T FulRan=T
         Omega=  0.000000  0.000000  1.000000  0.000000  0.000000 ICntrl=    6100 IOpCl=  0
         NMat0=    1 NMatS0=    1 NMatT0=    0 NMatD0=    1 NMtDS0=    0 NMtDT0=    0
         I1Cent=           7 NGrid=          31.
 Symmetry not used in FoFCou.
          There are     3 degrees of freedom in the 1st order CPHF.  IDoFFX=0.
      3 vectors produced by pass  0 Test12= 4.55D-14 3.33D-08 XBig12= 7.22D+00 4.73D-01.
 AX will form     3 AO Fock derivatives at one time.
      3 vectors produced by pass  1 Test12= 4.55D-14 3.33D-08 XBig12= 1.16D-02 1.34D-02.
      3 vectors produced by pass  2 Test12= 4.55D-14 3.33D-08 XBig12= 1.12D-04 3.31D-03.
      3 vectors produced by pass  3 Test12= 4.55D-14 3.33D-08 XBig12= 1.53D-06 3.70D-04.
      3 vectors produced by pass  4 Test12= 4.55D-14 3.33D-08 XBig12= 1.49D-08 2.77D-05.
      3 vectors produced by pass  5 Test12= 4.55D-14 3.33D-08 XBig12= 2.26D-10 2.63D-06.
      3 vectors produced by pass  6 Test12= 4.55D-14 3.33D-08 XBig12= 2.25D-12 2.39D-07.
 Inverted reduced A of dimension    21 with in-core refinement.
 Calculating GIAO nuclear magnetic shielding tensors.
 SCF GIAO Magnetic shielding tensor (ppm):
      1  C    Isotropic =   220.8732   Anisotropy =    27.0605
   XX=   232.5995   YX=     9.6582   ZX=    -5.1109
   XY=     9.2146   YY=   217.5485   ZY=    -0.1598
   XZ=   -10.5772   YZ=     1.5821   ZZ=   212.4716
   Eigenvalues:   207.7833   215.9228   238.9136
      2  C    Isotropic =   216.2042   Anisotropy =     9.7020
   XX=   222.3337   YX=    -0.6651   ZX=     0.8362
   XY=     1.8509   YY=   218.2457   ZY=     3.6642
   XZ=     1.3508   YZ=     4.7709   ZZ=   208.0330
   Eigenvalues:   206.4730   219.4673   222.6721
      3  C    Isotropic =   188.9217   Anisotropy =    43.5294
   XX=   194.2053   YX=   -18.2382   ZX=    -0.5933
   XY=   -16.1809   YY=   204.1917   ZY=     5.8494
   XZ=    -1.6118   YZ=     8.4250   ZZ=   168.3681
   Eigenvalues:   166.7639   182.0599   217.9412
      4  C    Isotropic =   216.9107   Anisotropy =    18.0485
   XX=   226.9057   YX=    -3.1525   ZX=    -1.2952
   XY=    -5.2496   YY=   220.2074   ZY=    -1.4953
   XZ=     0.5759   YZ=    -2.7049   ZZ=   203.6190
   Eigenvalues:   203.3233   218.4658   228.9430
      5  C    Isotropic =   209.9687   Anisotropy =    17.8322
   XX=   221.3530   YX=    -1.2622   ZX=    -2.4505
   XY=    -1.0546   YY=   207.9673   ZY=     1.2141
   XZ=    -3.1963   YZ=     1.4451   ZZ=   200.5859
   Eigenvalues:   200.0361   208.0132   221.8568
      6  C    Isotropic =   217.0533   Anisotropy =    16.8705
   XX=   220.2609   YX=     6.3596   ZX=    -1.7968
   XY=     8.6244   YY=   219.8426   ZY=     5.1763
   XZ=     0.9863   YZ=     5.6625   ZZ=   211.0563
   Eigenvalues:   207.2097   215.6498   228.3003
      7  C    Isotropic =   214.9008   Anisotropy =    19.0093
   XX=   223.2476   YX=    -5.5088   ZX=     5.2354
   XY=    -4.7011   YY=   217.6147   ZY=     3.5547
   XZ=     9.0788   YZ=    -0.3451   ZZ=   203.8400
   Eigenvalues:   200.8769   216.2517   227.5737
      8  O    Isotropic =   359.3050   Anisotropy =   103.4388
   XX=   357.1228   YX=    61.9252   ZX=    16.6266
   XY=    35.7230   YY=   394.2759   ZY=    -0.4794
   XZ=     2.8491   YZ=     1.0066   ZZ=   326.5164
   Eigenvalues:   316.8526   332.7983   428.2642
      9  C    Isotropic =   212.3272   Anisotropy =    18.1701
   XX=   223.5985   YX=     0.0911   ZX=    -2.0469
   XY=    -0.9190   YY=   205.6628   ZY=    -2.3607
   XZ=    -5.4574   YZ=    -1.5848   ZZ=   207.7201
   Eigenvalues:   204.1653   208.3756   224.4406
     10  C    Isotropic =   220.1314   Anisotropy =    28.7602
   XX=   228.8188   YX=    -6.4450   ZX=    11.1145
   XY=   -10.3827   YY=   210.2543   ZY=    -6.0634
   XZ=     9.3437   YZ=    -4.2433   ZZ=   221.3212
   Eigenvalues:   206.8719   214.2175   239.3049
     11  C    Isotropic =   224.0594   Anisotropy =    19.1189
   XX=   219.3994   YX=     1.3368   ZX=    -2.8714
   XY=     1.5143   YY=   216.7385   ZY=     4.4687
   XZ=    -0.8628   YZ=     2.5506   ZZ=   236.0402
   Eigenvalues:   215.3588   220.0140   236.8053
     12  H    Isotropic =    32.4692   Anisotropy =    14.0455
   XX=    39.7980   YX=    -4.2379   ZX=    -1.9435
   XY=    -4.0977   YY=    31.0955   ZY=     0.8464
   XZ=    -2.2825   YZ=     1.2468   ZZ=    26.5140
   Eigenvalues:    26.1432    29.4315    41.8329
     13  H    Isotropic =    32.7065   Anisotropy =    10.2217
   XX=    32.2192   YX=     1.7102   ZX=    -1.9906
   XY=     1.8481   YY=    29.9903   ZY=    -4.8346
   XZ=    -1.9617   YZ=    -4.7824   ZZ=    35.9101
   Eigenvalues:    27.2248    31.3737    39.5210
     14  H    Isotropic =    32.5905   Anisotropy =    13.8586
   XX=    34.5882   YX=     5.8321   ZX=     2.6184
   XY=     5.6688   YY=    33.6393   ZY=     4.6017
   XZ=     2.4845   YZ=     4.1929   ZZ=    29.5438
   Eigenvalues:    26.5285    29.4134    41.8295
     15  H    Isotropic =    32.3991   Anisotropy =    13.1668
   XX=    30.9531   YX=    -1.5137   ZX=     4.2958
   XY=    -1.4777   YY=    28.4490   ZY=    -3.8822
   XZ=     4.1057   YZ=    -3.9908   ZZ=    37.7952
   Eigenvalues:    27.0114    29.0089    41.1770
     16  H    Isotropic =    31.9210   Anisotropy =     8.9124
   XX=    31.4111   YX=     0.2807   ZX=    -4.0465
   XY=     0.3779   YY=    29.5715   ZY=    -2.9435
   XZ=    -2.5228   YZ=    -3.5524   ZZ=    34.7803
   Eigenvalues:    27.5547    30.3456    37.8625
     17  H    Isotropic =    32.3389   Anisotropy =    14.4364
   XX=    30.4880   YX=     1.6252   ZX=     1.2662
   XY=     1.9671   YY=    39.4867   ZY=     5.4877
   XZ=     1.2875   YZ=     5.5046   ZZ=    27.0420
   Eigenvalues:    24.9035    30.1500    41.9631
     18  H    Isotropic =    32.5720   Anisotropy =     9.3393
   XX=    32.0005   YX=    -0.3247   ZX=    -2.2395
   XY=    -0.0887   YY=    30.8652   ZY=    -4.9812
   XZ=    -2.4066   YZ=    -5.1603   ZZ=    34.8502
   Eigenvalues:    26.9503    31.9674    38.7981
     19  H    Isotropic =    32.0711   Anisotropy =    11.4592
   XX=    30.4786   YX=    -0.2767   ZX=     1.9296
   XY=     0.4127   YY=    27.0490   ZY=     2.4700
   XZ=     2.5925   YZ=     2.3809   ZZ=    38.6858
   Eigenvalues:    26.5238    29.9790    39.7106
     20  H    Isotropic =    32.8877   Anisotropy =    10.6866
   XX=    31.9854   YX=     0.2802   ZX=    -3.6547
   XY=     0.4641   YY=    28.4800   ZY=     1.5394
   XZ=    -3.5400   YZ=     1.8460   ZZ=    38.1976
   Eigenvalues:    27.8779    30.7731    40.0121
     21  H    Isotropic =    32.3739   Anisotropy =    14.7815
   XX=    33.6279   YX=    -5.9161   ZX=     0.8161
   XY=    -6.0490   YY=    38.0222   ZY=    -0.1584
   XZ=     1.0458   YZ=    -0.2660   ZZ=    25.4715
   Eigenvalues:    25.3416    29.5518    42.2282
     22  H    Isotropic =    33.0950   Anisotropy =    12.0227
   XX=    33.1079   YX=     2.5756   ZX=     1.6165
   XY=     3.1015   YY=    38.9928   ZY=     3.6634
   XZ=     1.0947   YZ=     3.1745   ZZ=    27.1843
   Eigenvalues:    26.2129    31.9620    41.1101
     23  H    Isotropic =    32.1669   Anisotropy =     9.8751
   XX=    32.6769   YX=     0.3436   ZX=    -3.3658
   XY=     0.4167   YY=    26.9285   ZY=     0.8360
   XZ=    -3.2859   YZ=     0.8425   ZZ=    36.8952
   Eigenvalues:    26.7697    30.9807    38.7503
     24  H    Isotropic =    35.2526   Anisotropy =    19.3957
   XX=    33.5132   YX=     4.1668   ZX=     0.2875
   XY=     2.5045   YY=    47.4235   ZY=    -0.3341
   XZ=     0.5694   YZ=    -0.1748   ZZ=    24.8210
   Eigenvalues:    24.7918    32.7829    48.1831
     25  H    Isotropic =    32.4886   Anisotropy =    12.0587
   XX=    32.3836   YX=     3.5895   ZX=     0.1734
   XY=     3.6023   YY=    38.9148   ZY=     0.7482
   XZ=     0.0423   YZ=     0.3599   ZZ=    26.1673
   Eigenvalues:    26.1429    30.7952    40.5277
     26  H    Isotropic =    31.8045   Anisotropy =     9.4423
   XX=    32.0176   YX=    -1.6899   ZX=     2.1286
   XY=    -1.7653   YY=    37.2735   ZY=    -1.3589
   XZ=     2.1211   YZ=    -1.3144   ZZ=    26.1223
   Eigenvalues:    25.3877    31.9263    38.0993
     27  H    Isotropic =    32.4515   Anisotropy =    12.6918
   XX=    31.4601   YX=    -0.2701   ZX=     4.0820
   XY=    -0.1600   YY=    26.7800   ZY=     1.4837
   XZ=     3.6997   YZ=     2.0279   ZZ=    39.1144
   Eigenvalues:    26.3919    30.0500    40.9127
     28  H    Isotropic =    32.4323   Anisotropy =    14.8516
   XX=    42.1359   YX=     1.7369   ZX=    -0.6679
   XY=     1.3895   YY=    26.7795   ZY=    -0.8779
   XZ=    -0.6332   YZ=    -1.0801   ZZ=    28.3815
   Eigenvalues:    26.2315    28.7320    42.3334
     29  H    Isotropic =    32.2628   Anisotropy =     8.5522
   XX=    29.4199   YX=     1.4252   ZX=    -2.1515
   XY=     1.2183   YY=    36.1549   ZY=     3.5539
   XZ=    -2.5083   YZ=     3.4326   ZZ=    31.2137
   Eigenvalues:    26.7355    32.0886    37.9643
     30  H    Isotropic =    32.5918   Anisotropy =     9.9445
   XX=    33.1239   YX=    -2.8004   ZX=     1.7581
   XY=    -2.6813   YY=    28.2433   ZY=    -3.6901
   XZ=     1.8845   YZ=    -4.0782   ZZ=    36.4083
   Eigenvalues:    26.1416    32.4123    39.2215
     31  H    Isotropic =    32.5373   Anisotropy =    15.0621
   XX=    37.3147   YX=     2.2326   ZX=    -6.3522
   XY=     2.2024   YY=    26.6974   ZY=    -1.4256
   XZ=    -6.4912   YZ=    -1.4380   ZZ=    33.5999
   Eigenvalues:    26.2473    28.7860    42.5787
 End of Minotr Frequency-dependent properties file   721 does not exist.
 End of Minotr Frequency-dependent properties file   722 does not exist.

 **********************************************************************

            Population analysis using the SCF density.

 **********************************************************************

 Orbital symmetries:
       Occupied  (A) (A) (A) (A) (A) (A) (A) (A) (A) (A) (A) (A)
                 (A) (A) (A) (A) (A) (A) (A) (A) (A) (A) (A) (A)
                 (A) (A) (A) (A) (A) (A) (A) (A) (A) (A) (A) (A)
                 (A) (A) (A) (A) (A) (A) (A) (A)
       Virtual   (A) (A) (A) (A) (A) (A) (A) (A) (A) (A) (A) (A)
                 (A) (A) (A) (A) (A) (A) (A) (A) (A) (A) (A) (A)
                 (A) (A) (A) (A) (A) (A) (A)
 The electronic state is 1-A.
 Alpha  occ. eigenvalues --  -20.23930 -11.08640 -11.04765 -11.04147 -11.04101
 Alpha  occ. eigenvalues --  -11.03738 -11.03575 -11.03509 -11.03356 -11.02127
 Alpha  occ. eigenvalues --  -11.01639  -1.28089  -1.08139  -1.03075  -0.96789
 Alpha  occ. eigenvalues --   -0.94424  -0.88354  -0.87595  -0.80424  -0.77993
 Alpha  occ. eigenvalues --   -0.72408  -0.67726  -0.64539  -0.61358  -0.57918
 Alpha  occ. eigenvalues --   -0.56725  -0.55983  -0.54664  -0.53110  -0.51766
 Alpha  occ. eigenvalues --   -0.51445  -0.49711  -0.48790  -0.47313  -0.46515
 Alpha  occ. eigenvalues --   -0.45391  -0.44719  -0.42632  -0.41785  -0.40423
 Alpha  occ. eigenvalues --   -0.39738  -0.38550  -0.35652  -0.32932
 Alpha virt. eigenvalues --    0.52816   0.55305   0.56786   0.59712   0.60641
 Alpha virt. eigenvalues --    0.61425   0.63112   0.65055   0.65507   0.67012
 Alpha virt. eigenvalues --    0.68311   0.69368   0.69598   0.71281   0.72447
 Alpha virt. eigenvalues --    0.73027   0.73294   0.74526   0.76096   0.76719
 Alpha virt. eigenvalues --    0.77613   0.77799   0.79064   0.79159   0.80689
 Alpha virt. eigenvalues --    0.81795   0.82498   0.82805   0.85896   0.86079
 Alpha virt. eigenvalues --    0.87348
          Condensed to atoms (all electrons):
              1          2          3          4          5          6
     1  C    4.742261   0.364707   0.000025   0.000765   0.000012  -0.024995
     2  C    0.364707   4.747094  -0.019351  -0.022855  -0.002387   0.362653
     3  C    0.000025  -0.019351   4.738371  -0.020728   0.354309  -0.007480
     4  C    0.000765  -0.022855  -0.020728   4.758775   0.359289   0.363419
     5  C    0.000012  -0.002387   0.354309   0.359289   4.778247  -0.021162
     6  C   -0.024995   0.362653  -0.007480   0.363419  -0.021162   4.756562
     7  C   -0.024234   0.359626   0.357325  -0.006928  -0.022012  -0.021958
     8  O   -0.000001   0.000245   0.268759   0.000179  -0.014910   0.000007
     9  C    0.000000   0.000011  -0.016521  -0.021760   0.357366   0.000640
    10  C    0.000000   0.000000  -0.000155   0.000665  -0.021559  -0.000004
    11  C    0.000000   0.000007  -0.001304  -0.001265  -0.020172   0.000002
    12  H    0.382408  -0.020079  -0.000012   0.000015   0.000000  -0.002249
    13  H    0.382004  -0.020783  -0.000008   0.000014   0.000007  -0.002303
    14  H    0.382464  -0.020234   0.000016  -0.000018  -0.000001   0.001303
    15  H   -0.024903   0.383464   0.001192  -0.000359   0.000011  -0.023628
    16  H    0.000041  -0.001949   0.376474   0.000438  -0.024608  -0.000186
    17  H   -0.000017   0.001288   0.001104   0.383536  -0.021182  -0.021489
    18  H    0.000008  -0.002496  -0.000068   0.381360  -0.021279  -0.023730
    19  H    0.000001   0.000021  -0.026173  -0.024911   0.381271  -0.000413
    20  H   -0.004649  -0.021774  -0.000271  -0.023411  -0.002324   0.381585
    21  H   -0.000316  -0.021448   0.000065  -0.021002   0.001206   0.383254
    22  H   -0.005617  -0.020121  -0.021190   0.000061   0.001091   0.001063
    23  H    0.001311  -0.021348  -0.023033   0.000013  -0.002319   0.000431
    24  H    0.000001   0.000007  -0.041188  -0.000033   0.002308  -0.000001
    25  H    0.000000   0.000000   0.001010  -0.004161  -0.023669   0.000038
    26  H    0.000000   0.000000  -0.000038  -0.000004  -0.001012   0.000000
    27  H    0.000000   0.000000   0.000017   0.000026  -0.002766   0.000000
    28  H    0.000000   0.000000  -0.000010  -0.000016   0.001165   0.000000
    29  H    0.000000   0.000002  -0.000031   0.000033  -0.001361   0.000000
    30  H    0.000000   0.000005   0.000015  -0.000608  -0.001691  -0.000010
    31  H    0.000000   0.000000   0.000002   0.000012   0.001123   0.000000
              7          8          9         10         11         12
     1  C   -0.024234  -0.000001   0.000000   0.000000   0.000000   0.382408
     2  C    0.359626   0.000245   0.000011   0.000000   0.000007  -0.020079
     3  C    0.357325   0.268759  -0.016521  -0.000155  -0.001304  -0.000012
     4  C   -0.006928   0.000179  -0.021760   0.000665  -0.001265   0.000015
     5  C   -0.022012  -0.014910   0.357366  -0.021559  -0.020172   0.000000
     6  C   -0.021958   0.000007   0.000640  -0.000004   0.000002  -0.002249
     7  C    4.791132  -0.019284   0.000104  -0.000004  -0.000321   0.001290
     8  O   -0.019284   7.844078  -0.000462  -0.001162  -0.000608   0.000000
     9  C    0.000104  -0.000462   4.731260   0.364519   0.364133   0.000000
    10  C   -0.000004  -0.001162   0.364519   4.744642  -0.025149   0.000000
    11  C   -0.000321  -0.000608   0.364133  -0.025149   4.742923   0.000000
    12  H    0.001290   0.000000   0.000000   0.000000   0.000000   0.629655
    13  H   -0.001955  -0.000002   0.000000   0.000000   0.000000  -0.021645
    14  H   -0.002351   0.000000   0.000000   0.000000   0.000000  -0.021704
    15  H   -0.024720  -0.000005   0.000000   0.000000   0.000001  -0.002219
    16  H   -0.029093  -0.020751   0.000996  -0.000010  -0.000008  -0.000009
    17  H    0.000048  -0.000003  -0.000513   0.000003   0.000034  -0.000001
    18  H   -0.000057  -0.000002  -0.003890   0.000019  -0.000549   0.000000
    19  H    0.001324   0.000285  -0.024245  -0.004281   0.001158   0.000000
    20  H   -0.000080   0.000001   0.000005   0.000000  -0.000001  -0.000091
    21  H    0.001159   0.000000  -0.000013   0.000000   0.000000   0.000168
    22  H    0.381092  -0.001460  -0.000012   0.000000   0.000004   0.000084
    23  H    0.381260  -0.000411   0.000108   0.000001  -0.000585  -0.000037
    24  H   -0.003459   0.259068   0.000017   0.000063   0.000022   0.000000
    25  H   -0.000014  -0.000004   0.381564  -0.026023  -0.025144   0.000000
    26  H    0.000005   0.000436  -0.019389   0.382841  -0.002406   0.000000
    27  H    0.000000   0.000025  -0.020331   0.381942   0.001284   0.000000
    28  H    0.000000   0.000016  -0.020326   0.381343  -0.001882   0.000000
    29  H   -0.000324   0.000381  -0.019896  -0.002288   0.382731   0.000000
    30  H   -0.000247   0.000017  -0.019974   0.001305   0.381916   0.000000
    31  H    0.000008   0.000007  -0.020090  -0.002264   0.381888   0.000000
             13         14         15         16         17         18
     1  C    0.382004   0.382464  -0.024903   0.000041  -0.000017   0.000008
     2  C   -0.020783  -0.020234   0.383464  -0.001949   0.001288  -0.002496
     3  C   -0.000008   0.000016   0.001192   0.376474   0.001104  -0.000068
     4  C    0.000014  -0.000018  -0.000359   0.000438   0.383536   0.381360
     5  C    0.000007  -0.000001   0.000011  -0.024608  -0.021182  -0.021279
     6  C   -0.002303   0.001303  -0.023628  -0.000186  -0.021489  -0.023730
     7  C   -0.001955  -0.002351  -0.024720  -0.029093   0.000048  -0.000057
     8  O   -0.000002   0.000000  -0.000005  -0.020751  -0.000003  -0.000002
     9  C    0.000000   0.000000   0.000000   0.000996  -0.000513  -0.003890
    10  C    0.000000   0.000000   0.000000  -0.000010   0.000003   0.000019
    11  C    0.000000   0.000000   0.000001  -0.000008   0.000034  -0.000549
    12  H   -0.021645  -0.021704  -0.002219  -0.000009  -0.000001   0.000000
    13  H    0.633365  -0.021930   0.001940   0.000037  -0.000001  -0.000001
    14  H   -0.021930   0.632280  -0.002590   0.000008   0.000000   0.000000
    15  H    0.001940  -0.002590   0.652069  -0.000006  -0.000017   0.000332
    16  H    0.000037   0.000008  -0.000006   0.672747  -0.000025  -0.000022
    17  H   -0.000001   0.000000  -0.000017  -0.000025   0.640370  -0.024022
    18  H   -0.000001   0.000000   0.000332  -0.000022  -0.024022   0.644479
    19  H    0.000000   0.000000   0.000002  -0.007147  -0.005615   0.001926
    20  H    0.000334   0.000059   0.001850  -0.000565  -0.002087   0.002030
    21  H    0.000012  -0.000017  -0.005056   0.000009  -0.002495  -0.002130
    22  H    0.000034   0.000045   0.000667  -0.001995   0.000001  -0.000001
    23  H    0.000002   0.000052  -0.006661   0.002052   0.000002  -0.000355
    24  H    0.000000   0.000000  -0.000001  -0.003516   0.000001   0.000000
    25  H    0.000000   0.000000   0.000000  -0.000027   0.000060  -0.000125
    26  H    0.000000   0.000000   0.000000  -0.000012  -0.000001   0.000000
    27  H    0.000000   0.000000   0.000000  -0.000003   0.000004   0.000000
    28  H    0.000000   0.000000   0.000000   0.000001   0.000000  -0.000001
    29  H    0.000000   0.000000   0.000000   0.000007  -0.000002   0.000024
    30  H    0.000000   0.000000   0.000003  -0.000002   0.000019  -0.000243
    31  H    0.000000   0.000000   0.000000   0.000000  -0.000001  -0.000027
             19         20         21         22         23         24
     1  C    0.000001  -0.004649  -0.000316  -0.005617   0.001311   0.000001
     2  C    0.000021  -0.021774  -0.021448  -0.020121  -0.021348   0.000007
     3  C   -0.026173  -0.000271   0.000065  -0.021190  -0.023033  -0.041188
     4  C   -0.024911  -0.023411  -0.021002   0.000061   0.000013  -0.000033
     5  C    0.381271  -0.002324   0.001206   0.001091  -0.002319   0.002308
     6  C   -0.000413   0.381585   0.383254   0.001063   0.000431  -0.000001
     7  C    0.001324  -0.000080   0.001159   0.381092   0.381260  -0.003459
     8  O    0.000285   0.000001   0.000000  -0.001460  -0.000411   0.259068
     9  C   -0.024245   0.000005  -0.000013  -0.000012   0.000108   0.000017
    10  C   -0.004281   0.000000   0.000000   0.000000   0.000001   0.000063
    11  C    0.001158  -0.000001   0.000000   0.000004  -0.000585   0.000022
    12  H    0.000000  -0.000091   0.000168   0.000084  -0.000037   0.000000
    13  H    0.000000   0.000334   0.000012   0.000034   0.000002   0.000000
    14  H    0.000000   0.000059  -0.000017   0.000045   0.000052   0.000000
    15  H    0.000002   0.001850  -0.005056   0.000667  -0.006661  -0.000001
    16  H   -0.007147  -0.000565   0.000009  -0.001995   0.002052  -0.003516
    17  H   -0.005615  -0.002087  -0.002495   0.000001   0.000002   0.000001
    18  H    0.001926   0.002030  -0.002130  -0.000001  -0.000355   0.000000
    19  H    0.659885   0.000379  -0.000017  -0.000035   0.000007  -0.000057
    20  H    0.000379   0.645303  -0.023848  -0.000014  -0.000025   0.000000
    21  H   -0.000017  -0.023848   0.638850  -0.000025  -0.000019   0.000000
    22  H   -0.000035  -0.000014  -0.000025   0.645770  -0.025204   0.000587
    23  H    0.000007  -0.000025  -0.000019  -0.025204   0.639908   0.000003
    24  H   -0.000057   0.000000   0.000000   0.000587   0.000003   0.606981
    25  H   -0.001167   0.000000  -0.000002   0.000001  -0.000009   0.000001
    26  H    0.000026   0.000000   0.000000   0.000000  -0.000001  -0.000002
    27  H    0.000168   0.000000   0.000000   0.000000   0.000000  -0.000003
    28  H    0.000060   0.000000   0.000000   0.000000   0.000000  -0.000001
    29  H    0.000004   0.000000   0.000000   0.000014  -0.000260  -0.000012
    30  H    0.000007   0.000000   0.000001   0.000004  -0.000242  -0.000002
    31  H   -0.000031   0.000000   0.000000   0.000000   0.000012   0.000000
             25         26         27         28         29         30
     1  C    0.000000   0.000000   0.000000   0.000000   0.000000   0.000000
     2  C    0.000000   0.000000   0.000000   0.000000   0.000002   0.000005
     3  C    0.001010  -0.000038   0.000017  -0.000010  -0.000031   0.000015
     4  C   -0.004161  -0.000004   0.000026  -0.000016   0.000033  -0.000608
     5  C   -0.023669  -0.001012  -0.002766   0.001165  -0.001361  -0.001691
     6  C    0.000038   0.000000   0.000000   0.000000   0.000000  -0.000010
     7  C   -0.000014   0.000005   0.000000   0.000000  -0.000324  -0.000247
     8  O   -0.000004   0.000436   0.000025   0.000016   0.000381   0.000017
     9  C    0.381564  -0.019389  -0.020331  -0.020326  -0.019896  -0.019974
    10  C   -0.026023   0.382841   0.381942   0.381343  -0.002288   0.001305
    11  C   -0.025144  -0.002406   0.001284  -0.001882   0.382731   0.381916
    12  H    0.000000   0.000000   0.000000   0.000000   0.000000   0.000000
    13  H    0.000000   0.000000   0.000000   0.000000   0.000000   0.000000
    14  H    0.000000   0.000000   0.000000   0.000000   0.000000   0.000000
    15  H    0.000000   0.000000   0.000000   0.000000   0.000000   0.000003
    16  H   -0.000027  -0.000012  -0.000003   0.000001   0.000007  -0.000002
    17  H    0.000060  -0.000001   0.000004   0.000000  -0.000002   0.000019
    18  H   -0.000125   0.000000   0.000000  -0.000001   0.000024  -0.000243
    19  H   -0.001167   0.000026   0.000168   0.000060   0.000004   0.000007
    20  H    0.000000   0.000000   0.000000   0.000000   0.000000   0.000000
    21  H   -0.000002   0.000000   0.000000   0.000000   0.000000   0.000001
    22  H    0.000001   0.000000   0.000000   0.000000   0.000014   0.000004
    23  H   -0.000009  -0.000001   0.000000   0.000000  -0.000260  -0.000242
    24  H    0.000001  -0.000002  -0.000003  -0.000001  -0.000012  -0.000002
    25  H    0.658635   0.001931  -0.001909  -0.003388   0.001918  -0.002070
    26  H    0.001931   0.610806  -0.021378  -0.022128   0.000342   0.000014
    27  H   -0.001909  -0.021378   0.636321  -0.022012   0.000012  -0.000037
    28  H   -0.003388  -0.022128  -0.022012   0.638526  -0.000008   0.000018
    29  H    0.001918   0.000342   0.000012  -0.000008   0.617819  -0.021856
    30  H   -0.002070   0.000014  -0.000037   0.000018  -0.021856   0.637370
    31  H   -0.002911  -0.000019   0.000028   0.000122  -0.021886  -0.022138
             31
     1  C    0.000000
     2  C    0.000000
     3  C    0.000002
     4  C    0.000012
     5  C    0.001123
     6  C    0.000000
     7  C    0.000008
     8  O    0.000007
     9  C   -0.020090
    10  C   -0.002264
    11  C    0.381888
    12  H    0.000000
    13  H    0.000000
    14  H    0.000000
    15  H    0.000000
    16  H    0.000000
    17  H   -0.000001
    18  H   -0.000027
    19  H   -0.000031
    20  H    0.000000
    21  H    0.000000
    22  H    0.000000
    23  H    0.000012
    24  H    0.000000
    25  H   -0.002911
    26  H   -0.000019
    27  H    0.000028
    28  H    0.000122
    29  H   -0.021886
    30  H   -0.022138
    31  H    0.634074
 Mulliken atomic charges:
              1
     1  C   -0.171276
     2  C   -0.024303
     3  C    0.078878
     4  C   -0.100541
     5  C   -0.032988
     6  C   -0.101347
     7  C   -0.117328
     8  O   -0.314437
     9  C   -0.013301
    10  C   -0.174444
    11  C   -0.176709
    12  H    0.054427
    13  H    0.050879
    14  H    0.052620
    15  H    0.048633
    16  H    0.037127
    17  H    0.051001
    18  H    0.048820
    19  H    0.047570
    20  H    0.047593
    21  H    0.051664
    22  H    0.045159
    23  H    0.055349
    24  H    0.179215
    25  H    0.045466
    26  H    0.069987
    27  H    0.048612
    28  H    0.048522
    29  H    0.064637
    30  H    0.048425
    31  H    0.052092
 Sum of Mulliken atomic charges =   0.00000
 Mulliken charges with hydrogens summed into heavy atoms:
              1
     1  C   -0.013349
     2  C    0.024330
     3  C    0.116005
     4  C   -0.000720
     5  C    0.014582
     6  C   -0.002090
     7  C   -0.016820
     8  O   -0.135222
     9  C    0.032164
    10  C   -0.007323
    11  C   -0.011555
 Sum of Mulliken charges with hydrogens summed into heavy atoms =   0.00000
 Electronic spatial extent (au):  <R**2>=           2067.3367
 Charge=              0.0000 electrons
 Dipole moment (field-independent basis, Debye):
    X=              1.3792    Y=              0.0274    Z=             -0.0159  Tot=              1.3796
 Quadrupole moment (field-independent basis, Debye-Ang):
   XX=            -69.9954   YY=            -65.1073   ZZ=            -67.5119
   XY=              2.5461   XZ=             -0.3847   YZ=             -0.0088
 Traceless Quadrupole moment (field-independent basis, Debye-Ang):
   XX=             -2.4572   YY=              2.4309   ZZ=              0.0263
   XY=              2.5461   XZ=             -0.3847   YZ=             -0.0088
 Octapole moment (field-independent basis, Debye-Ang**2):
  XXX=             -5.1723  YYY=             23.3759  ZZZ=             -3.1434  XYY=              3.5959
  XXY=             -1.3033  XXZ=              2.2458  XZZ=             -0.0723  YZZ=              3.1159
  YYZ=             -0.7929  XYZ=             -1.2541
 Hexadecapole moment (field-independent basis, Debye-Ang**3):
 XXXX=          -1806.2135 YYYY=           -484.9056 ZZZZ=           -316.6205 XXXY=             -9.9168
 XXXZ=             -3.5614 YYYX=             -2.7718 YYYZ=             -4.3308 ZZZX=              3.7056
 ZZZY=             -4.0861 XXYY=           -389.6910 XXZZ=           -354.4796 YYZZ=           -141.9797
 XXYZ=              0.5512 YYXZ=              0.7059 ZZXY=             -0.9798
 N-N= 6.981591426193D+02 E-N=-2.468468560389D+03  KE= 4.555376532692D+02
 ******************************Gaussian NBO Version 3.1******************************
             N A T U R A L   A T O M I C   O R B I T A L   A N D
          N A T U R A L   B O N D   O R B I T A L   A N A L Y S I S
 ******************************Gaussian NBO Version 3.1******************************
       /RESON  / : Allow strongly delocalized NBO set
       /NLMO   / : Form Natural Localized Molecular Orbitals
       /NMR /    : Analyze NMR Sheilding Tensor 

 Analyzing the SCF density

 Job title: comment                                                         

 Storage needed:     19864 in NPA,     23691 in NBO,     45933 in NLMO (  33549317 available)


 NATURAL POPULATIONS:  Natural atomic orbital occupancies 
                                                          
   NAO  Atom  No  lang   Type(AO)    Occupancy      Energy
 ----------------------------------------------------------
     1    C    1  S      Cor( 1S)     1.99998     -10.96713
     2    C    1  S      Val( 2S)     1.08075      -0.18453
     3    C    1  px     Val( 2p)     1.00350       0.08362
     4    C    1  py     Val( 2p)     1.02113       0.08276
     5    C    1  pz     Val( 2p)     1.02089       0.08353

     6    C    2  S      Cor( 1S)     1.99997     -10.99068
     7    C    2  S      Val( 2S)     1.08141      -0.19490
     8    C    2  px     Val( 2p)     0.95436       0.10840
     9    C    2  py     Val( 2p)     0.95958       0.10763
    10    C    2  pz     Val( 2p)     0.98978       0.10158

    11    C    3  S      Cor( 1S)     1.99989     -11.03580
    12    C    3  S      Val( 2S)     1.08682      -0.21607
    13    C    3  px     Val( 2p)     0.89919       0.10788
    14    C    3  py     Val( 2p)     0.89143       0.10514
    15    C    3  pz     Val( 2p)     0.97588       0.09067

    16    C    4  S      Cor( 1S)     1.99996     -10.97431
    17    C    4  S      Val( 2S)     1.08595      -0.18964
    18    C    4  px     Val( 2p)     0.97061       0.10059
    19    C    4  py     Val( 2p)     0.99118       0.09422
    20    C    4  pz     Val( 2p)     1.01524       0.09367

    21    C    5  S      Cor( 1S)     1.99995     -10.98795
    22    C    5  S      Val( 2S)     1.10450      -0.21066
    23    C    5  px     Val( 2p)     0.95967       0.11007
    24    C    5  py     Val( 2p)     0.94573       0.11306
    25    C    5  pz     Val( 2p)     1.00016       0.09636

    26    C    6  S      Cor( 1S)     1.99996     -10.97535
    27    C    6  S      Val( 2S)     1.08346      -0.18920
    28    C    6  px     Val( 2p)     0.98281       0.09665
    29    C    6  py     Val( 2p)     0.99604       0.09159
    30    C    6  pz     Val( 2p)     1.00192       0.09507

    31    C    7  S      Cor( 1S)     1.99996     -10.97356
    32    C    7  S      Val( 2S)     1.09408      -0.19875
    33    C    7  px     Val( 2p)     0.99435       0.08810
    34    C    7  py     Val( 2p)     0.99789       0.09209
    35    C    7  pz     Val( 2p)     1.00838       0.08582

    36    O    8  S      Cor( 1S)     1.99999     -20.14284
    37    O    8  S      Val( 2S)     1.74436      -0.99748
    38    O    8  px     Val( 2p)     1.50561      -0.19292
    39    O    8  py     Val( 2p)     1.11897      -0.01772
    40    O    8  pz     Val( 2p)     1.96643      -0.36855

    41    C    9  S      Cor( 1S)     1.99996     -10.98535
    42    C    9  S      Val( 2S)     1.08402      -0.18800
    43    C    9  px     Val( 2p)     0.94663       0.12044
    44    C    9  py     Val( 2p)     0.99103       0.10935
    45    C    9  pz     Val( 2p)     0.95037       0.12257

    46    C   10  S      Cor( 1S)     1.99997     -10.95013
    47    C   10  S      Val( 2S)     1.08155      -0.16825
    48    C   10  px     Val( 2p)     1.00333       0.10091
    49    C   10  py     Val( 2p)     1.03429       0.09670
    50    C   10  pz     Val( 2p)     1.01176       0.10131

    51    C   11  S      Cor( 1S)     1.99997     -10.95482
    52    C   11  S      Val( 2S)     1.07964      -0.17149
    53    C   11  px     Val( 2p)     1.02680       0.09284
    54    C   11  py     Val( 2p)     1.03416       0.09237
    55    C   11  pz     Val( 2p)     0.99262       0.09836

    56    H   12  S      Val( 1S)     0.96299       0.07260

    57    H   13  S      Val( 1S)     0.96633       0.06965

    58    H   14  S      Val( 1S)     0.96473       0.07170

    59    H   15  S      Val( 1S)     0.97581       0.06559

    60    H   16  S      Val( 1S)     0.99858       0.04729

    61    H   17  S      Val( 1S)     0.96998       0.07102

    62    H   18  S      Val( 1S)     0.97274       0.07275

    63    H   19  S      Val( 1S)     0.97858       0.06918

    64    H   20  S      Val( 1S)     0.97308       0.06766

    65    H   21  S      Val( 1S)     0.96887       0.06977

    66    H   22  S      Val( 1S)     0.97426       0.06098

    67    H   23  S      Val( 1S)     0.96565       0.07440

    68    H   24  S      Val( 1S)     0.80801       0.07423

    69    H   25  S      Val( 1S)     0.97981       0.07030

    70    H   26  S      Val( 1S)     0.94952       0.10519

    71    H   27  S      Val( 1S)     0.96822       0.08442

    72    H   28  S      Val( 1S)     0.96824       0.08335

    73    H   29  S      Val( 1S)     0.95389       0.09529

    74    H   30  S      Val( 1S)     0.96835       0.08129

    75    H   31  S      Val( 1S)     0.96457       0.08182


 Summary of Natural Population Analysis:                  
                                                          
                                       Natural Population 
                Natural  -----------------------------------------------
    Atom  No    Charge         Core      Valence    Rydberg      Total
 -----------------------------------------------------------------------
      C    1   -0.12624      1.99998     4.12627    0.00000     6.12624
      C    2    0.01491      1.99997     3.98513    0.00000     5.98509
      C    3    0.14680      1.99989     3.85331    0.00000     5.85320
      C    4   -0.06293      1.99996     4.06297    0.00000     6.06293
      C    5   -0.01000      1.99995     4.01006    0.00000     6.01000
      C    6   -0.06420      1.99996     4.06424    0.00000     6.06420
      C    7   -0.09466      1.99996     4.09470    0.00000     6.09466
      O    8   -0.33536      1.99999     6.33537    0.00000     8.33536
      C    9    0.02799      1.99996     3.97205    0.00000     5.97201
      C   10   -0.13091      1.99997     4.13094    0.00000     6.13091
      C   11   -0.13318      1.99997     4.13321    0.00000     6.13318
      H   12    0.03701      0.00000     0.96299    0.00000     0.96299
      H   13    0.03367      0.00000     0.96633    0.00000     0.96633
      H   14    0.03527      0.00000     0.96473    0.00000     0.96473
      H   15    0.02419      0.00000     0.97581    0.00000     0.97581
      H   16    0.00142      0.00000     0.99858    0.00000     0.99858
      H   17    0.03002      0.00000     0.96998    0.00000     0.96998
      H   18    0.02726      0.00000     0.97274    0.00000     0.97274
      H   19    0.02142      0.00000     0.97858    0.00000     0.97858
      H   20    0.02692      0.00000     0.97308    0.00000     0.97308
      H   21    0.03113      0.00000     0.96887    0.00000     0.96887
      H   22    0.02574      0.00000     0.97426    0.00000     0.97426
      H   23    0.03435      0.00000     0.96565    0.00000     0.96565
      H   24    0.19199      0.00000     0.80801    0.00000     0.80801
      H   25    0.02019      0.00000     0.97981    0.00000     0.97981
      H   26    0.05048      0.00000     0.94952    0.00000     0.94952
      H   27    0.03178      0.00000     0.96822    0.00000     0.96822
      H   28    0.03176      0.00000     0.96824    0.00000     0.96824
      H   29    0.04611      0.00000     0.95389    0.00000     0.95389
      H   30    0.03165      0.00000     0.96835    0.00000     0.96835
      H   31    0.03543      0.00000     0.96457    0.00000     0.96457
 =======================================================================
   * Total *    0.00000     21.99954    66.00046    0.00000    88.00000

                                 Natural Population      
 --------------------------------------------------------
   Core                      21.99954 ( 99.9979% of  22)
   Valence                   66.00046 (100.0007% of  66)
   Natural Minimal Basis     88.00000 (100.0000% of  88)
   Natural Rydberg Basis      0.00000 (  0.0000% of  88)
 --------------------------------------------------------

    Atom  No          Natural Electron Configuration
 ----------------------------------------------------------------------------
      C    1      [core]2S( 1.08)2p( 3.05)
      C    2      [core]2S( 1.08)2p( 2.90)
      C    3      [core]2S( 1.09)2p( 2.77)
      C    4      [core]2S( 1.09)2p( 2.98)
      C    5      [core]2S( 1.10)2p( 2.91)
      C    6      [core]2S( 1.08)2p( 2.98)
      C    7      [core]2S( 1.09)2p( 3.00)
      O    8      [core]2S( 1.74)2p( 4.59)
      C    9      [core]2S( 1.08)2p( 2.89)
      C   10      [core]2S( 1.08)2p( 3.05)
      C   11      [core]2S( 1.08)2p( 3.05)
      H   12            1S( 0.96)
      H   13            1S( 0.97)
      H   14            1S( 0.96)
      H   15            1S( 0.98)
      H   16            1S( 1.00)
      H   17            1S( 0.97)
      H   18            1S( 0.97)
      H   19            1S( 0.98)
      H   20            1S( 0.97)
      H   21            1S( 0.97)
      H   22            1S( 0.97)
      H   23            1S( 0.97)
      H   24            1S( 0.81)
      H   25            1S( 0.98)
      H   26            1S( 0.95)
      H   27            1S( 0.97)
      H   28            1S( 0.97)
      H   29            1S( 0.95)
      H   30            1S( 0.97)
      H   31            1S( 0.96)


 NATURAL BOND ORBITAL ANALYSIS:

                       Occupancies       Lewis Structure    Low   High
           Occ.    -------------------  -----------------   occ   occ
  Cycle   Thresh.   Lewis   Non-Lewis     CR  BD  3C  LP    (L)   (NL)   Dev
 =============================================================================
   1(1)    1.90    87.64313   0.35687     11  31   0   2     0      0    0.02
 -----------------------------------------------------------------------------

 Structure accepted: No low occupancy Lewis orbitals

 --------------------------------------------------------
   Core                     21.99954 ( 99.998% of  22)
   Valence Lewis            65.64360 ( 99.460% of  66)
  ==================       ============================
   Total Lewis              87.64313 ( 99.594% of  88)
  -----------------------------------------------------
   Valence non-Lewis         0.35687 (  0.406% of  88)
   Rydberg non-Lewis         0.00000 (  0.000% of  88)
  ==================       ============================
   Total non-Lewis           0.35687 (  0.406% of  88)
 --------------------------------------------------------


       (Occupancy)   Bond orbital/ Coefficients/ Hybrids
 ---------------------------------------------------------------------------------
     1. (1.99038) BD ( 1) C   1 - C   2  
                ( 50.95%)   0.7138* C   1 s( 25.73%)p 2.89( 74.27%)
                                            0.0001  0.5073 -0.7141 -0.3480  0.3342
                ( 49.05%)   0.7003* C   2 s( 24.87%)p 3.02( 75.13%)
                                            0.0000  0.4987  0.7014  0.3621 -0.3582
     2. (1.99507) BD ( 1) C   1 - H  12  
                ( 51.86%)   0.7202* C   1 s( 24.77%)p 3.04( 75.23%)
                                            0.0000  0.4977  0.6104 -0.6101 -0.0865
                ( 48.14%)   0.6938* H  12 s(100.00%)
                                            1.0000
     3. (1.99520) BD ( 1) C   1 - H  13  
                ( 51.72%)   0.7192* C   1 s( 24.81%)p 3.03( 75.19%)
                                            0.0000  0.4981 -0.1761  0.3404 -0.7778
                ( 48.28%)   0.6948* H  13 s(100.00%)
                                            1.0000
     4. (1.99495) BD ( 1) C   1 - H  14  
                ( 51.78%)   0.7196* C   1 s( 24.69%)p 3.05( 75.31%)
                                            0.0000  0.4969  0.2941  0.6251  0.5252
                ( 48.22%)   0.6944* H  14 s(100.00%)
                                            1.0000
     5. (1.98500) BD ( 1) C   2 - C   6  
                ( 49.77%)   0.7055* C   2 s( 25.33%)p 2.95( 74.67%)
                                            0.0000  0.5033 -0.2753 -0.6514 -0.4966
                ( 50.23%)   0.7087* C   6 s( 25.23%)p 2.96( 74.77%)
                                            0.0001  0.5023  0.2464  0.6749  0.4812
     6. (1.98403) BD ( 1) C   2 - C   7  
                ( 49.36%)   0.7025* C   2 s( 25.26%)p 2.96( 74.74%)
                                            0.0000  0.5026 -0.6241  0.5932  0.0773
                ( 50.64%)   0.7116* C   7 s( 25.66%)p 2.90( 74.34%)
                                            0.0001  0.5066  0.6166 -0.5882 -0.1310
     7. (1.98629) BD ( 1) C   2 - H  15  
                ( 51.13%)   0.7151* C   2 s( 24.54%)p 3.08( 75.46%)
                                            0.0000  0.4954  0.2068 -0.3045  0.7868
                ( 48.87%)   0.6991* H  15 s(100.00%)
                                            1.0000
     8. (1.98205) BD ( 1) C   3 - C   5  
                ( 50.74%)   0.7123* C   3 s( 26.93%)p 2.71( 73.07%)
                                            0.0000  0.5189 -0.4367 -0.7343 -0.0279
                ( 49.26%)   0.7019* C   5 s( 25.62%)p 2.90( 74.38%)
                                            0.0001  0.5061  0.3692  0.7675  0.1359
     9. (1.98909) BD ( 1) C   3 - C   7  
                ( 49.22%)   0.7016* C   3 s( 25.47%)p 2.93( 74.53%)
                                            0.0000  0.5047  0.5632 -0.0032  0.6542
                ( 50.78%)   0.7126* C   7 s( 25.20%)p 2.97( 74.80%)
                                            0.0000  0.5020 -0.5685 -0.0184 -0.6515
    10. (1.98815) BD ( 1) C   3 - O   8  
                ( 40.98%)   0.6401* C   3 s( 22.76%)p 3.39( 77.24%)
                                            0.0000  0.4771 -0.5609  0.6662  0.1180
                ( 59.02%)   0.7683* O   8 s( 16.97%)p 4.89( 83.03%)
                                            0.0000  0.4120  0.6238 -0.6573 -0.0954
    11. (1.98927) BD ( 1) C   3 - H  16  
                ( 50.36%)   0.7097* C   3 s( 24.83%)p 3.03( 75.17%)
                                            0.0000  0.4983  0.4213  0.1300 -0.7465
                ( 49.64%)   0.7045* H  16 s(100.00%)
                                            1.0000
    12. (1.98315) BD ( 1) C   4 - C   5  
                ( 50.45%)   0.7103* C   4 s( 25.21%)p 2.97( 74.79%)
                                            0.0001  0.5021 -0.4976  0.6657 -0.2388
                ( 49.55%)   0.7039* C   5 s( 24.90%)p 3.02( 75.10%)
                                            0.0000  0.4990  0.5198 -0.6303  0.2891
    13. (1.98973) BD ( 1) C   4 - C   6  
                ( 49.90%)   0.7064* C   4 s( 25.20%)p 2.97( 74.80%)
                                            0.0000  0.5020  0.8310  0.1902 -0.1459
                ( 50.10%)   0.7078* C   6 s( 25.14%)p 2.98( 74.86%)
                                            0.0000  0.5014 -0.8360 -0.1703  0.1436
    14. (1.99024) BD ( 1) C   4 - H  17  
                ( 51.46%)   0.7174* C   4 s( 24.91%)p 3.02( 75.09%)
                                            0.0000  0.4991 -0.2202 -0.7041 -0.4547
                ( 48.54%)   0.6967* H  17 s(100.00%)
                                            1.0000
    15. (1.99038) BD ( 1) C   4 - H  18  
                ( 51.41%)   0.7170* C   4 s( 24.68%)p 3.05( 75.32%)
                                            0.0000  0.4968 -0.1156 -0.1577  0.8455
                ( 48.59%)   0.6970* H  18 s(100.00%)
                                            1.0000
    16. (1.97916) BD ( 1) C   5 - C   9  
                ( 50.57%)   0.7111* C   5 s( 25.87%)p 2.87( 74.13%)
                                            0.0001  0.5086 -0.7607 -0.0406  0.4013
                ( 49.43%)   0.7031* C   9 s( 25.40%)p 2.94( 74.60%)
                                            0.0001  0.5040  0.7854  0.1361 -0.3326
    17. (1.98550) BD ( 1) C   5 - H  19  
                ( 50.97%)   0.7139* C   5 s( 23.61%)p 3.23( 76.39%)
                                            0.0000  0.4860 -0.1221 -0.1097 -0.8584
                ( 49.03%)   0.7002* H  19 s(100.00%)
                                            1.0000
    18. (1.99090) BD ( 1) C   6 - H  20  
                ( 51.39%)   0.7169* C   6 s( 24.71%)p 3.05( 75.29%)
                                            0.0000  0.4971  0.1160  0.1862 -0.8395
                ( 48.61%)   0.6972* H  20 s(100.00%)
                                            1.0000
    19. (1.99013) BD ( 1) C   6 - H  21  
                ( 51.52%)   0.7177* C   6 s( 24.92%)p 3.01( 75.08%)
                                            0.0000  0.4992  0.4763 -0.6935  0.2076
                ( 48.48%)   0.6963* H  21 s(100.00%)
                                            1.0000
    20. (1.98867) BD ( 1) C   7 - H  22  
                ( 51.26%)   0.7160* C   7 s( 24.99%)p 3.00( 75.01%)
                                            0.0000  0.4999  0.3534  0.7888  0.0545
                ( 48.74%)   0.6981* H  22 s(100.00%)
                                            1.0000
    21. (1.99062) BD ( 1) C   7 - H  23  
                ( 51.72%)   0.7192* C   7 s( 24.14%)p 3.14( 75.86%)
                                            0.0000  0.4913 -0.4144 -0.1773  0.7453
                ( 48.28%)   0.6948* H  23 s(100.00%)
                                            1.0000
    22. (1.98824) BD ( 1) O   8 - H  24  
                ( 59.59%)   0.7720* O   8 s( 16.93%)p 4.91( 83.07%)
                                            0.0000  0.4115  0.5201  0.7481  0.0231
                ( 40.41%)   0.6357* H  24 s(100.00%)
                                            1.0000
    23. (1.98955) BD ( 1) C   9 - C  10  
                ( 49.29%)   0.7021* C   9 s( 25.17%)p 2.97( 74.83%)
                                            0.0000  0.5017 -0.5906  0.4386 -0.4550
                ( 50.71%)   0.7121* C  10 s( 25.84%)p 2.87( 74.16%)
                                            0.0001  0.5083  0.6252 -0.3872  0.4482
    24. (1.99010) BD ( 1) C   9 - C  11  
                ( 49.10%)   0.7007* C   9 s( 25.41%)p 2.94( 74.59%)
                                            0.0000  0.5040 -0.0182  0.2548  0.8250
                ( 50.90%)   0.7134* C  11 s( 25.91%)p 2.86( 74.09%)
                                            0.0001  0.5090  0.0577 -0.2192 -0.8304
    25. (1.98342) BD ( 1) C   9 - H  25  
                ( 50.87%)   0.7132* C   9 s( 24.03%)p 3.16( 75.97%)
                                            0.0000  0.4902 -0.1842 -0.8510 -0.0407
                ( 49.13%)   0.7009* H  25 s(100.00%)
                                            1.0000
    26. (1.99592) BD ( 1) C  10 - H  26  
                ( 52.62%)   0.7254* C  10 s( 25.14%)p 2.98( 74.86%)
                                            0.0000  0.5014  0.0771  0.8592  0.0661
                ( 47.38%)   0.6883* H  26 s(100.00%)
                                            1.0000
    27. (1.99479) BD ( 1) C  10 - H  27  
                ( 51.60%)   0.7183* C  10 s( 24.66%)p 3.05( 75.34%)
                                            0.0000  0.4966  0.0524 -0.2302 -0.8352
                ( 48.40%)   0.6957* H  27 s(100.00%)
                                            1.0000
    28. (1.99473) BD ( 1) C  10 - H  28  
                ( 51.58%)   0.7182* C  10 s( 24.36%)p 3.11( 75.64%)
                                            0.0000  0.4935 -0.7749 -0.2425  0.3117
                ( 48.42%)   0.6958* H  28 s(100.00%)
                                            1.0000
    29. (1.99546) BD ( 1) C  11 - H  29  
                ( 52.38%)   0.7237* C  11 s( 24.97%)p 3.00( 75.03%)
                                            0.0000  0.4997  0.1292  0.8517  0.0905
                ( 47.62%)   0.6901* H  29 s(100.00%)
                                            1.0000
    30. (1.99390) BD ( 1) C  11 - H  30  
                ( 51.60%)   0.7183* C  11 s( 24.70%)p 3.05( 75.30%)
                                            0.0000  0.4970  0.5965 -0.4309  0.4599
                ( 48.40%)   0.6957* H  30 s(100.00%)
                                            1.0000
    31. (1.99428) BD ( 1) C  11 - H  31  
                ( 51.76%)   0.7194* C  11 s( 24.42%)p 3.10( 75.58%)
                                            0.0000  0.4941 -0.7900 -0.2021  0.3014
                ( 48.24%)   0.6945* H  31 s(100.00%)
                                            1.0000
    32. (1.99997) CR ( 1) C   1           s(100.00%)
                                            1.0000  0.0000  0.0001  0.0000  0.0000
    33. (1.99997) CR ( 1) C   2           s(100.00%)
                                            1.0000  0.0000  0.0000  0.0000  0.0000
    34. (1.99989) CR ( 1) C   3           s(100.00%)
                                            1.0000  0.0000  0.0000  0.0000  0.0000
    35. (1.99996) CR ( 1) C   4           s(100.00%)
                                            1.0000  0.0000  0.0000 -0.0001  0.0000
    36. (1.99994) CR ( 1) C   5           s(100.00%)
                                            1.0000 -0.0001  0.0000  0.0000 -0.0001
    37. (1.99996) CR ( 1) C   6           s(100.00%)
                                            1.0000  0.0000  0.0000 -0.0001  0.0000
    38. (1.99996) CR ( 1) C   7           s(100.00%)
                                            1.0000  0.0000  0.0000  0.0000  0.0000
    39. (1.99999) CR ( 1) O   8           s(100.00%)
                                            1.0000  0.0000  0.0000  0.0000  0.0000
    40. (1.99996) CR ( 1) C   9           s(100.00%)
                                            1.0000  0.0000 -0.0001  0.0000  0.0000
    41. (1.99997) CR ( 1) C  10           s(100.00%)
                                            1.0000  0.0000 -0.0001  0.0000  0.0000
    42. (1.99997) CR ( 1) C  11           s(100.00%)
                                            1.0000  0.0000  0.0000  0.0000  0.0001
    43. (1.99103) LP ( 1) O   8           s( 65.94%)p 0.52( 34.06%)
                                            0.0000  0.8120 -0.5753 -0.0494  0.0851
    44. (1.97422) LP ( 2) O   8           s(  0.16%)p99.99( 99.84%)
                                            0.0000  0.0397 -0.0973  0.0765 -0.9915
    45. (0.00965) BD*( 1) C   1 - C   2  
                ( 49.05%)   0.7003* C   1 s( 25.73%)p 2.89( 74.27%)
                                           -0.0001 -0.5073  0.7141  0.3480 -0.3342
                ( 50.95%)  -0.7138* C   2 s( 24.87%)p 3.02( 75.13%)
                                            0.0000 -0.4987 -0.7014 -0.3621  0.3582
    46. (0.00513) BD*( 1) C   1 - H  12  
                ( 48.14%)   0.6938* C   1 s( 24.77%)p 3.04( 75.23%)
                                            0.0000 -0.4977 -0.6104  0.6101  0.0865
                ( 51.86%)  -0.7202* H  12 s(100.00%)
                                           -1.0000
    47. (0.00592) BD*( 1) C   1 - H  13  
                ( 48.28%)   0.6948* C   1 s( 24.81%)p 3.03( 75.19%)
                                            0.0000 -0.4981  0.1761 -0.3404  0.7778
                ( 51.72%)  -0.7192* H  13 s(100.00%)
                                           -1.0000
    48. (0.00515) BD*( 1) C   1 - H  14  
                ( 48.22%)   0.6944* C   1 s( 24.69%)p 3.05( 75.31%)
                                            0.0000 -0.4969 -0.2941 -0.6251 -0.5252
                ( 51.78%)  -0.7196* H  14 s(100.00%)
                                           -1.0000
    49. (0.01602) BD*( 1) C   2 - C   6  
                ( 50.23%)   0.7087* C   2 s( 25.33%)p 2.95( 74.67%)
                                            0.0000  0.5033 -0.2753 -0.6514 -0.4966
                ( 49.77%)  -0.7055* C   6 s( 25.23%)p 2.96( 74.77%)
                                            0.0001  0.5023  0.2464  0.6749  0.4812
    50. (0.01635) BD*( 1) C   2 - C   7  
                ( 50.64%)   0.7116* C   2 s( 25.26%)p 2.96( 74.74%)
                                            0.0000  0.5026 -0.6241  0.5932  0.0773
                ( 49.36%)  -0.7025* C   7 s( 25.66%)p 2.90( 74.34%)
                                            0.0001  0.5066  0.6166 -0.5882 -0.1310
    51. (0.01004) BD*( 1) C   2 - H  15  
                ( 48.87%)   0.6991* C   2 s( 24.54%)p 3.08( 75.46%)
                                            0.0000 -0.4954 -0.2068  0.3045 -0.7868
                ( 51.13%)  -0.7151* H  15 s(100.00%)
                                           -1.0000
    52. (0.02947) BD*( 1) C   3 - C   5  
                ( 49.26%)   0.7019* C   3 s( 26.93%)p 2.71( 73.07%)
                                            0.0000 -0.5189  0.4367  0.7343  0.0279
                ( 50.74%)  -0.7123* C   5 s( 25.62%)p 2.90( 74.38%)
                                           -0.0001 -0.5061 -0.3692 -0.7675 -0.1359
    53. (0.02770) BD*( 1) C   3 - C   7  
                ( 50.78%)   0.7126* C   3 s( 25.47%)p 2.93( 74.53%)
                                            0.0000  0.5047  0.5632 -0.0032  0.6542
                ( 49.22%)  -0.7016* C   7 s( 25.20%)p 2.97( 74.80%)
                                            0.0000  0.5020 -0.5685 -0.0184 -0.6515
    54. (0.02105) BD*( 1) C   3 - O   8  
                ( 59.02%)   0.7683* C   3 s( 22.76%)p 3.39( 77.24%)
                                            0.0000  0.4771 -0.5609  0.6662  0.1180
                ( 40.98%)  -0.6401* O   8 s( 16.97%)p 4.89( 83.03%)
                                            0.0000  0.4120  0.6238 -0.6573 -0.0954
    55. (0.02215) BD*( 1) C   3 - H  16  
                ( 49.64%)   0.7045* C   3 s( 24.83%)p 3.03( 75.17%)
                                            0.0000 -0.4983 -0.4213 -0.1300  0.7465
                ( 50.36%)  -0.7097* H  16 s(100.00%)
                                           -1.0000
    56. (0.01550) BD*( 1) C   4 - C   5  
                ( 49.55%)   0.7039* C   4 s( 25.21%)p 2.97( 74.79%)
                                           -0.0001 -0.5021  0.4976 -0.6657  0.2388
                ( 50.45%)  -0.7103* C   5 s( 24.90%)p 3.02( 75.10%)
                                            0.0000 -0.4990 -0.5198  0.6303 -0.2891
    57. (0.01071) BD*( 1) C   4 - C   6  
                ( 50.10%)   0.7078* C   4 s( 25.20%)p 2.97( 74.80%)
                                            0.0000  0.5020  0.8310  0.1902 -0.1459
                ( 49.90%)  -0.7064* C   6 s( 25.14%)p 2.98( 74.86%)
                                            0.0000  0.5014 -0.8360 -0.1703  0.1436
    58. (0.00759) BD*( 1) C   4 - H  17  
                ( 48.54%)   0.6967* C   4 s( 24.91%)p 3.02( 75.09%)
                                            0.0000 -0.4991  0.2202  0.7041  0.4547
                ( 51.46%)  -0.7174* H  17 s(100.00%)
                                           -1.0000
    59. (0.01101) BD*( 1) C   4 - H  18  
                ( 48.59%)   0.6970* C   4 s( 24.68%)p 3.05( 75.32%)
                                            0.0000 -0.4968  0.1156  0.1577 -0.8455
                ( 51.41%)  -0.7170* H  18 s(100.00%)
                                           -1.0000
    60. (0.02164) BD*( 1) C   5 - C   9  
                ( 49.43%)   0.7031* C   5 s( 25.87%)p 2.87( 74.13%)
                                           -0.0001 -0.5086  0.7607  0.0406 -0.4013
                ( 50.57%)  -0.7111* C   9 s( 25.40%)p 2.94( 74.60%)
                                           -0.0001 -0.5040 -0.7854 -0.1361  0.3326
    61. (0.00982) BD*( 1) C   5 - H  19  
                ( 49.03%)   0.7002* C   5 s( 23.61%)p 3.23( 76.39%)
                                            0.0000 -0.4860  0.1221  0.1097  0.8584
                ( 50.97%)  -0.7139* H  19 s(100.00%)
                                           -1.0000
    62. (0.01027) BD*( 1) C   6 - H  20  
                ( 48.61%)   0.6972* C   6 s( 24.71%)p 3.05( 75.29%)
                                            0.0000 -0.4971 -0.1160 -0.1862  0.8395
                ( 51.39%)  -0.7169* H  20 s(100.00%)
                                           -1.0000
    63. (0.00771) BD*( 1) C   6 - H  21  
                ( 48.48%)   0.6963* C   6 s( 24.92%)p 3.01( 75.08%)
                                            0.0000 -0.4992 -0.4763  0.6935 -0.2076
                ( 51.52%)  -0.7177* H  21 s(100.00%)
                                           -1.0000
    64. (0.00988) BD*( 1) C   7 - H  22  
                ( 48.74%)   0.6981* C   7 s( 24.99%)p 3.00( 75.01%)
                                            0.0000 -0.4999 -0.3534 -0.7888 -0.0545
                ( 51.26%)  -0.7160* H  22 s(100.00%)
                                           -1.0000
    65. (0.00898) BD*( 1) C   7 - H  23  
                ( 48.28%)   0.6948* C   7 s( 24.14%)p 3.14( 75.86%)
                                            0.0000 -0.4913  0.4144  0.1773 -0.7453
                ( 51.72%)  -0.7192* H  23 s(100.00%)
                                           -1.0000
    66. (0.00779) BD*( 1) O   8 - H  24  
                ( 40.41%)   0.6357* O   8 s( 16.93%)p 4.91( 83.07%)
                                            0.0000 -0.4115 -0.5201 -0.7481 -0.0231
                ( 59.59%)  -0.7720* H  24 s(100.00%)
                                           -1.0000
    67. (0.01034) BD*( 1) C   9 - C  10  
                ( 50.71%)   0.7121* C   9 s( 25.17%)p 2.97( 74.83%)
                                            0.0000  0.5017 -0.5906  0.4386 -0.4550
                ( 49.29%)  -0.7021* C  10 s( 25.84%)p 2.87( 74.16%)
                                            0.0001  0.5083  0.6252 -0.3872  0.4482
    68. (0.01074) BD*( 1) C   9 - C  11  
                ( 50.90%)   0.7134* C   9 s( 25.41%)p 2.94( 74.59%)
                                            0.0000  0.5040 -0.0182  0.2548  0.8250
                ( 49.10%)  -0.7007* C  11 s( 25.91%)p 2.86( 74.09%)
                                            0.0001  0.5090  0.0577 -0.2192 -0.8304
    69. (0.01057) BD*( 1) C   9 - H  25  
                ( 49.13%)   0.7009* C   9 s( 24.03%)p 3.16( 75.97%)
                                            0.0000 -0.4902  0.1842  0.8510  0.0407
                ( 50.87%)  -0.7132* H  25 s(100.00%)
                                           -1.0000
    70. (0.00739) BD*( 1) C  10 - H  26  
                ( 47.38%)   0.6883* C  10 s( 25.14%)p 2.98( 74.86%)
                                            0.0000 -0.5014 -0.0771 -0.8592 -0.0661
                ( 52.62%)  -0.7254* H  26 s(100.00%)
                                           -1.0000
    71. (0.00532) BD*( 1) C  10 - H  27  
                ( 48.40%)   0.6957* C  10 s( 24.66%)p 3.05( 75.34%)
                                            0.0000 -0.4966 -0.0524  0.2302  0.8352
                ( 51.60%)  -0.7183* H  27 s(100.00%)
                                           -1.0000
    72. (0.00480) BD*( 1) C  10 - H  28  
                ( 48.42%)   0.6958* C  10 s( 24.36%)p 3.11( 75.64%)
                                            0.0000 -0.4935  0.7749  0.2425 -0.3117
[...]
   39     271.1717       -0.0053     271.1770        -0.0036     271.1752
   43      34.2782       -1.1283      35.4065        -3.0821      37.3603
   44       7.8989      -30.8991      38.7979       -32.0614      39.9603
 Sum      357.4150      -16.7940     374.2090       -19.8859     377.3009

 Contributions to Isotropic shielding for atom    9 (   212.3271 ppm):
                         Standard Origin              Atomic Origin
 NLMO      Total    Paramagnetic  Diamagnetic   Paramagnetic  Diamagnetic
   10       0.0338       -0.4959       0.5297        -1.4090       1.4428
   15      -0.1362       -0.5800       0.4438        -1.0887       0.9526
   16       5.2344       -9.0553      14.2897        -2.2835       7.5179
   23      -2.2830       -5.1032       2.8202        -9.9274       7.6444
   24      -0.0562       -7.0009       6.9447        -7.6322       7.5760
   25       4.9151       -0.9004       5.8155        -5.8740      10.7891
   26       0.9899       -0.4012       1.3910        -0.0445       1.0343
   27       0.7098       -0.5859       1.2957        -0.3164       1.0263
   28       0.6329       -0.3685       1.0014        -0.3958       1.0287
   29       0.7719       -0.3658       1.1378        -0.2700       1.0420
   30       0.5866       -0.5247       1.1113        -0.4241       1.0107
   31       0.5975       -0.1293       0.7269        -0.4388       1.0363
   40     199.9229       -0.0025     199.9254         0.0029     199.9200
 Sum      211.9194      -25.5135     237.4330       -30.1015     242.0209

 Contributions to Isotropic shielding for atom   10 (   220.1314 ppm):
                         Standard Origin              Atomic Origin
 NLMO      Total    Paramagnetic  Diamagnetic   Paramagnetic  Diamagnetic
   10       0.1016       -0.2632       0.3648        -1.0232       1.1248
   17      -0.2650       -0.1483      -0.1167        -1.1797       0.9148
   23       4.5401      -11.2180      15.7581        -3.3212       7.8612
   24      -0.4753        0.0156      -0.4909        -1.1561       0.6808
   25       0.2612        0.2213       0.0399        -0.7945       1.0557
   26       5.9629       -5.4132      11.3761        -5.4813      11.4443
   27       5.3483       -3.2301       8.5785        -5.6796      11.0280
   28       4.6127        2.3384       2.2744        -6.3844      10.9971
   41     200.0754       -0.0041     200.0794         0.0023     200.0731
 Sum      220.1619      -17.7016     237.8635       -25.0177     245.1796

 Contributions to Isotropic shielding for atom   11 (   224.0594 ppm):
                         Standard Origin              Atomic Origin
 NLMO      Total    Paramagnetic  Diamagnetic   Paramagnetic  Diamagnetic
   10       0.0881       -0.3222       0.4103        -1.0870       1.1751
   23      -0.3302       -0.0388      -0.2914        -1.0042       0.6741
   24       3.8141       -8.5222      12.3363        -4.1205       7.9346
   29       6.6731       -5.3348      12.0078        -4.6604      11.3334
   30       7.1311       -4.9416      12.0727        -3.8884      11.0194
   31       5.8901        3.1702       2.7200        -5.1659      11.0560
   42     200.0737       -0.0020     200.0757         0.0013     200.0724
 Sum      223.3400      -15.9914     239.3315       -19.9250     243.2650

 Contributions to Isotropic shielding for atom   12 (    32.4692 ppm):
                         Standard Origin              Atomic Origin
 NLMO      Total    Paramagnetic  Diamagnetic   Paramagnetic  Diamagnetic
    1       1.3549       -0.1549       1.5098         0.3614       0.9935
    2      26.3521        0.1090      26.2431         0.4558      25.8963
    3       1.9759        1.3461       0.6297         0.1438       1.8320
    4       1.8397        2.3200      -0.4803         0.0082       1.8314
    5      -0.1588        0.7367      -0.8956        -1.1443       0.9855
 Sum       31.3637        4.3570      27.0067        -0.1750      31.5387

 Contributions to Isotropic shielding for atom   13 (    32.7065 ppm):
                         Standard Origin              Atomic Origin
 NLMO      Total    Paramagnetic  Diamagnetic   Paramagnetic  Diamagnetic
    1       1.6953       -1.4397       3.1349         0.8064       0.8889
    2       1.9250        1.7080       0.2171         0.1023       1.8228
    3      26.3759        0.3456      26.0303         0.4078      25.9682
    4       1.9375        1.3120       0.6256         0.1204       1.8172
 Sum       31.9338        1.9259      30.0079         1.4368      30.4970

 Contributions to Isotropic shielding for atom   14 (    32.5905 ppm):
                         Standard Origin              Atomic Origin
 NLMO      Total    Paramagnetic  Diamagnetic   Paramagnetic  Diamagnetic
    1       1.4700       -0.4995       1.9695         0.4956       0.9744
    2       1.8863        2.4601      -0.5738         0.0381       1.8483
    3       1.9789        1.0584       0.9206         0.1390       1.8399
    4      26.4038        0.1819      26.2219         0.4568      25.9470
    6      -0.1155        0.5116      -0.6270        -1.0088       0.8934
   20      -0.2290        0.0048      -0.2337        -1.0239       0.7949
 Sum       31.3946        3.7172      27.6774        -0.9032      32.2978

 Contributions to Isotropic shielding for atom   15 (    32.3991 ppm):
                         Standard Origin              Atomic Origin
 NLMO      Total    Paramagnetic  Diamagnetic   Paramagnetic  Diamagnetic
    1       0.7643        2.3817      -1.6174        -0.2250       0.9894
    4       0.2512       -0.7665       1.0177        -0.7240       0.9752
    5       1.3331        0.9275       0.4057         0.3793       0.9538
    6       1.4335        0.3609       1.0726         0.4205       1.0130
    7      26.4549       -0.1726      26.6275         0.4276      26.0273
   19       0.0307       -0.2577       0.2884        -1.0201       1.0508
   21      -0.1184       -0.0372      -0.0812        -1.2708       1.1524
 Sum       30.1493        2.4359      27.7134        -2.0126      32.1619

 Contributions to Isotropic shielding for atom   16 (    31.9210 ppm):
                         Standard Origin              Atomic Origin
 NLMO      Total    Paramagnetic  Diamagnetic   Paramagnetic  Diamagnetic
    3      -0.1897       -1.2122       1.0224        -0.7657       0.5759
    8       1.0897        0.1434       0.9463        -0.1671       1.2568
   10       0.5811        1.0467      -0.4655        -1.0428       1.6240
   11      26.8317        0.2410      26.5907         0.7124      26.1193
   17      -0.1054       -0.5421       0.4367        -1.2261       1.1207
 Sum       28.2073       -0.3232      28.5305        -2.4893      30.6966

 Contributions to Isotropic shielding for atom   17 (    32.3389 ppm):
                         Standard Origin              Atomic Origin
 NLMO      Total    Paramagnetic  Diamagnetic   Paramagnetic  Diamagnetic
   12       1.3360        0.5329       0.8032         0.3475       0.9885
   13       0.9445        1.3854      -0.4410        -0.0321       0.9766
   14      26.4402        0.0106      26.4296         0.4764      25.9639
   15       2.0615        1.3428       0.7187         0.2939       1.7676
   17       0.0060       -0.0583       0.0643        -1.0389       1.0449
 Sum       30.7883        3.2134      27.5749         0.0468      30.7415

 Contributions to Isotropic shielding for atom   18 (    32.5720 ppm):
                         Standard Origin              Atomic Origin
 NLMO      Total    Paramagnetic  Diamagnetic   Paramagnetic  Diamagnetic
   12       1.4501       -0.0501       1.5002         0.5996       0.8505
   13       1.0644        0.7434       0.3210         0.1231       0.9412
   14       1.9852        1.5786       0.4066         0.2066       1.7786
   15      26.4451        0.1703      26.2749         0.4314      26.0137
   16      -0.1073       -0.1386       0.0314        -1.1838       1.0765
   24       0.0051       -0.4933       0.4984        -1.0105       1.0156
   30      -0.3884       -1.0793       0.6909        -0.8507       0.4623
 Sum       30.4542        0.7309      29.7233        -1.6842      32.1384

 Contributions to Isotropic shielding for atom   19 (    32.0711 ppm):
                         Standard Origin              Atomic Origin
 NLMO      Total    Paramagnetic  Diamagnetic   Paramagnetic  Diamagnetic
    8       1.2155        0.7883       0.4272         0.0685       1.1470
   10       0.1332       -0.1510       0.2842        -0.8901       1.0233
   11      -0.1462       -0.5126       0.3664        -1.2581       1.1119
   12       1.1291        1.1045       0.0246         0.0350       1.0941
   14       0.0077       -0.5743       0.5820        -1.0500       1.0577
   16       1.0600        1.4083      -0.3483        -0.1905       1.2506
   17      26.4987       -0.1727      26.6714         0.4368      26.0619
   23      -0.0609       -0.5808       0.5199        -1.1001       1.0392
   27      -0.1464       -1.6257       1.4793        -1.0432       0.8967
 Sum       29.6907       -0.3159      30.0066        -4.9916      34.6823

 Contributions to Isotropic shielding for atom   20 (    32.8877 ppm):
                         Standard Origin              Atomic Origin
 NLMO      Total    Paramagnetic  Diamagnetic   Paramagnetic  Diamagnetic
    1      -0.1331       -0.3325       0.1993        -1.1985       1.0654
    3      -0.0263       -1.0706       1.0444        -0.9681       0.9418
    5       1.3054        0.5259       0.7795         0.5324       0.7729
   13       1.3364       -0.0047       1.3411         0.4191       0.9173
   18      26.4551        0.1594      26.2957         0.4443      26.0108
   19       1.9552        2.0297      -0.0745         0.1785       1.7767
 Sum       30.8926        1.3071      29.5855        -0.5923      31.4849

 Contributions to Isotropic shielding for atom   21 (    32.3739 ppm):
                         Standard Origin              Atomic Origin
 NLMO      Total    Paramagnetic  Diamagnetic   Paramagnetic  Diamagnetic
    2      -0.0697       -1.1557       1.0859        -0.9241       0.8544
    5       1.0270        1.1959      -0.1690         0.0775       0.9495
    7       0.0674       -0.1037       0.1711        -0.9597       1.0270
   13       1.1873        0.8310       0.3563         0.2263       0.9610
   18       2.0110        1.6838       0.3272         0.2477       1.7633
   19      26.4223       -0.0578      26.4801         0.4722      25.9501
 Sum       30.6452        2.3935      28.2517        -0.8602      31.5054

 Contributions to Isotropic shielding for atom   22 (    33.0950 ppm):
                         Standard Origin              Atomic Origin
 NLMO      Total    Paramagnetic  Diamagnetic   Paramagnetic  Diamagnetic
    1      -0.1382       -0.5093       0.3712        -1.2595       1.1214
    4      -0.0504       -1.4850       1.4346        -0.9873       0.9368
    6       1.0179        1.4242      -0.4063         0.1374       0.8805
    9       1.3094        0.6791       0.6303         0.4502       0.8592
   10      -0.1769        0.2002      -0.3770        -1.3509       1.1740
   20      26.5285        0.0624      26.4661         0.4758      26.0526
   21       2.1381        1.2439       0.8942         0.2866       1.8515
   22      -0.0538       -1.0260       0.9723        -0.7379       0.6842
 Sum       30.5746        0.5894      29.9852        -2.9856      33.5602

 Contributions to Isotropic shielding for atom   23 (    32.1669 ppm):
                         Standard Origin              Atomic Origin
 NLMO      Total    Paramagnetic  Diamagnetic   Paramagnetic  Diamagnetic
    6       1.1129        0.5532       0.5597         0.1030       1.0098
    7      -0.0388       -0.9396       0.9008        -1.1603       1.1215
    9       1.4190       -0.0300       1.4490         0.5009       0.9181
   10      -0.0002       -0.2010       0.2008        -1.1643       1.1641
   20       1.8945        1.2370       0.6575         0.0192       1.8753
   21      26.2530        0.1630      26.0900         0.3800      25.8731
 Sum       30.6404        0.7826      29.8577        -1.3216      31.9619

 Contributions to Isotropic shielding for atom   24 (    35.2526 ppm):
                         Standard Origin              Atomic Origin
 NLMO      Total    Paramagnetic  Diamagnetic   Paramagnetic  Diamagnetic
    9      -0.1845        0.2786      -0.4631        -1.2081       1.0236
   10       1.5448        2.2035      -0.6587         0.8572       0.6876
   11       0.1989        0.2514      -0.0525        -0.8476       1.0466
   20      -0.0945       -0.6009       0.5064        -1.0229       0.9284
   22      22.9994       -0.4907      23.4901        -0.1075      23.1069
   43       4.1524        0.9233       3.2291         2.2160       1.9364
   44       5.6876        2.5602       3.1274         2.5220       3.1656
 Sum       34.3042        5.1254      29.1787         2.4091      31.8951

 Contributions to Isotropic shielding for atom   25 (    32.4886 ppm):
                         Standard Origin              Atomic Origin
 NLMO      Total    Paramagnetic  Diamagnetic   Paramagnetic  Diamagnetic
   12      -0.1509        0.2644      -0.4154        -1.3166       1.1656
   16       1.6259        0.2124       1.4135         0.6200       1.0059
   23       0.8082        2.1778      -1.3696        -0.2811       1.0893
   24       1.0140        1.4545      -0.4405        -0.0457       1.0597
   25      26.6021       -0.1814      26.7836         0.4640      26.1382
   28       0.2126       -0.6564       0.8690        -0.7998       1.0124
 Sum       30.1119        3.2714      26.8405        -1.3592      31.4711

 Contributions to Isotropic shielding for atom   26 (    31.8045 ppm):
                         Standard Origin              Atomic Origin
 NLMO      Total    Paramagnetic  Diamagnetic   Paramagnetic  Diamagnetic
    8      -0.0841        0.1383      -0.2224        -1.0148       0.9307
   23       1.5653       -1.1089       2.6742         0.6745       0.8908
   24      -0.1395        0.2512      -0.3907        -1.0337       0.8942
   26      25.9533        0.3259      25.6274         0.4342      25.5191
   27       1.9576        0.8550       1.1026         0.1417       1.8159
   28       1.8605        1.9501      -0.0897         0.0035       1.8570
   43      -0.9643       -0.1333      -0.8311         0.4217      -1.3860
 Sum       30.1487        2.2783      27.8704        -0.3730      30.5217

 Contributions to Isotropic shielding for atom   27 (    32.4515 ppm):
                         Standard Origin              Atomic Origin
 NLMO      Total    Paramagnetic  Diamagnetic   Paramagnetic  Diamagnetic
   10       0.0671       -0.1574       0.2245        -0.9892       1.0563
   16      -0.0690        0.1730      -0.2420        -1.0336       0.9647
   23       1.5513       -0.6442       2.1955         0.5703       0.9810
   26       2.0551        0.7924       1.2627         0.1730       1.8822
   27      26.4618        0.2375      26.2242         0.4216      26.0402
   28       1.8827        2.3178      -0.4350         0.0545       1.8283
 Sum       31.9491        2.7191      29.2300        -0.8035      32.7526

 Contributions to Isotropic shielding for atom   28 (    32.4323 ppm):
                         Standard Origin              Atomic Origin
 NLMO      Total    Paramagnetic  Diamagnetic   Paramagnetic  Diamagnetic
   23       1.2462        0.3368       0.9094         0.2290       1.0172
   24      -0.1557        0.6982      -0.8539        -1.0823       0.9266
   26       1.9862        1.6373       0.3489         0.0810       1.9053
   27       1.9099        2.0368      -0.1269         0.0681       1.8418
   28      26.5101        0.0227      26.4873         0.4551      26.0550
 Sum       31.4967        4.7319      26.7648        -0.2492      31.7459

 Contributions to Isotropic shielding for atom   29 (    32.2628 ppm):
                         Standard Origin              Atomic Origin
 NLMO      Total    Paramagnetic  Diamagnetic   Paramagnetic  Diamagnetic
    8      -0.1275       -0.0196      -0.1079        -1.0516       0.9241
   10       0.1245       -0.3947       0.5193        -0.9974       1.1219
   24       1.4537       -0.4355       1.8892         0.5221       0.9316
   29      26.0477        0.3045      25.7431         0.3954      25.6523
   30       2.1229        0.2650       1.8579         0.3070       1.8159
   31       1.9751        1.9010       0.0741         0.1196       1.8555
   43      -0.5738        0.1036      -0.6774         0.6175      -1.1913
 Sum       31.0226        1.7243      29.2983        -0.0874      31.1100

 Contributions to Isotropic shielding for atom   30 (    32.5918 ppm):
                         Standard Origin              Atomic Origin
 NLMO      Total    Paramagnetic  Diamagnetic   Paramagnetic  Diamagnetic
   24       1.4635       -0.5469       2.0104         0.4520       1.0115
   29       2.1456        0.2620       1.8836         0.2805       1.8650
   30      26.4323        0.2804      26.1519         0.3563      26.0760
   31       1.9631        1.8273       0.1358         0.1096       1.8535
 Sum       32.0044        1.8227      30.1817         1.1983      30.8061

 Contributions to Isotropic shielding for atom   31 (    32.5373 ppm):
                         Standard Origin              Atomic Origin
 NLMO      Total    Paramagnetic  Diamagnetic   Paramagnetic  Diamagnetic
   23      -0.1192        0.4639      -0.5831        -1.0829       0.9637
   24       1.1254        1.0533       0.0722         0.0952       1.0302
   29       2.0396        1.5264       0.5132         0.1491       1.8905
   30       2.0543        1.4820       0.5723         0.2021       1.8522
   31      26.3711       -0.0220      26.3931         0.4054      25.9658
 Sum       31.4713        4.5036      26.9677        -0.2311      31.7024
 
 1\1\GINC-COMPUTE-10-7\SP\RHF\STO-3G\C10H20O1\YTSAI.IQUIR\24-May-2020\0
 \\# rhf/STO-3G nmr pop=nbo\\comment\\0,1\C,0,0.20907988,0.784261892,-3
 .396943509\C,0,-0.538476529,0.351286294,-2.134899159\C,0,1.040003841,-
 0.192370961,-0.207564095\C,0,-1.095740779,1.161930952,0.191597741\C,0,
 0.154233993,0.523811117,0.84745097\C,0,-0.836535577,1.573871779,-1.252
 176687\C,0,0.22741837,-0.747689608,-1.378707387\O,0,1.8341444,-1.22176
 5857,0.360367856\C,0,-0.256489956,-0.263349752,2.128545743\C,0,0.89957
 1043,-0.416268542,3.124454198\C,0,-0.902079863,-1.624702092,1.85938718
 3\H,0,-0.354389844,1.552006916,-3.937737374\H,0,1.195957016,1.19306215
 4,-3.155110036\H,0,0.351358208,-0.064313167,-4.074466128\H,0,-1.494638
 272,-0.081230689,-2.458773866\H,0,1.746223941,0.547132548,-0.607871939
 \H,0,-1.398551773,2.040177895,0.774959578\H,0,-1.946496888,0.471301507
 ,0.210930648\H,0,0.762945659,1.368699546,1.204444841\H,0,-0.00172662,2
 .286027422,-1.278009518\H,0,-1.70948546,2.105131478,-1.650099649\H,0,0
 .875018968,-1.31531139,-2.05869796\H,0,-0.487650096,-1.487063988,-0.99
 6146787\H,0,2.391492817,-1.59148454,-0.345283812\H,0,-1.010815351,0.34
 6683647,2.64597852\H,0,1.670016876,-1.10685914,2.773359336\H,0,1.37224
 5296,0.550359459,3.327216451\H,0,0.527652437,-0.805161449,4.079157271\
 H,0,-0.1978636,-2.33577471,1.418582108\H,0,-1.762694971,-1.537847036,1
 .190349824\H,0,-1.263727167,-2.064551687,2.795705637\\Version=EM64L-G0
 9RevC.01\State=1-A\HF=-459.6083116\RMSD=7.349e-09\Dipole=-0.0353844,0.
 1544554,-0.5191132\Quadrupole=0.7484905,-0.0228709,-0.7256196,-0.22178
 17,-1.9982234,1.5431923\PG=C01 [X(C10H20O1)]\\@


  THE LARGE PRINT GIVETH,
  AND THE SMALL PRINT TAKETH AWAY.

                     -- TOM WAITS
 Job cpu time:  0 days  0 hours  0 minutes 39.0 seconds.
 File lengths (MBytes):  RWF=      5 Int=      0 D2E=      0 Chk=      1 Scr=      1
 Normal termination of Gaussian 09 at Sun May 24 02:10:00 2020.
