 Entering Gaussian System, Link 0=g09
 Input=/home/ytsai.iquir/menthol/04_menthol_M0055_MMFF_NMR_rhf_STO-3G_nbo.gjc
 Output=/home/ytsai.iquir/menthol/04_menthol_M0055_MMFF_NMR_rhf_STO-3G_nbo.log
 Initial command:
 /share/apps/Gaussian09/EM64T.SSE4.2-enabled/g09/l1.exe /tmp/Gau-22095.inp -scrdir=/tmp/
 Entering Link 1 = /share/apps/Gaussian09/EM64T.SSE4.2-enabled/g09/l1.exe PID=     22096.
  
 Copyright (c) 1988,1990,1992,1993,1995,1998,2003,2009,2011,
            Gaussian, Inc.  All Rights Reserved.
  
 This is part of the Gaussian(R) 09 program.  It is based on
 the Gaussian(R) 03 system (copyright 2003, Gaussian, Inc.),
 the Gaussian(R) 98 system (copyright 1998, Gaussian, Inc.),
 the Gaussian(R) 94 system (copyright 1995, Gaussian, Inc.),
 the Gaussian 92(TM) system (copyright 1992, Gaussian, Inc.),
 the Gaussian 90(TM) system (copyright 1990, Gaussian, Inc.),
 the Gaussian 88(TM) system (copyright 1988, Gaussian, Inc.),
 the Gaussian 86(TM) system (copyright 1986, Carnegie Mellon
 University), and the Gaussian 82(TM) system (copyright 1983,
 Carnegie Mellon University). Gaussian is a federally registered
 trademark of Gaussian, Inc.
  
 This software contains proprietary and confidential information,
 including trade secrets, belonging to Gaussian, Inc.
  
 This software is provided under written license and may be
 used, copied, transmitted, or stored only in accord with that
 written license.
  
 The following legend is applicable only to US Government
 contracts under FAR:
  
                    RESTRICTED RIGHTS LEGEND
  
 Use, reproduction and disclosure by the US Government is
 subject to restrictions as set forth in subparagraphs (a)
 and (c) of the Commercial Computer Software - Restricted
 Rights clause in FAR 52.227-19.
  
 Gaussian, Inc.
 340 Quinnipiac St., Bldg. 40, Wallingford CT 06492
  
  
 ---------------------------------------------------------------
 Warning -- This program may not be used in any manner that
 competes with the business of Gaussian, Inc. or will provide
 assistance to any competitor of Gaussian, Inc.  The licensee
 of this program is prohibited from giving any competitor of
 Gaussian, Inc. access to this program.  By using this program,
 the user acknowledges that Gaussian, Inc. is engaged in the
 business of creating and licensing software in the field of
 computational chemistry and represents and warrants to the
 licensee that it is not a competitor of Gaussian, Inc. and that
 it will not use this program in any manner prohibited above.
 ---------------------------------------------------------------
  

 Cite this work as:
 Gaussian 09, Revision C.01,
 M. J. Frisch, G. W. Trucks, H. B. Schlegel, G. E. Scuseria, 
 M. A. Robb, J. R. Cheeseman, G. Scalmani, V. Barone, B. Mennucci, 
 G. A. Petersson, H. Nakatsuji, M. Caricato, X. Li, H. P. Hratchian, 
 A. F. Izmaylov, J. Bloino, G. Zheng, J. L. Sonnenberg, M. Hada, 
 M. Ehara, K. Toyota, R. Fukuda, J. Hasegawa, M. Ishida, T. Nakajima, 
 Y. Honda, O. Kitao, H. Nakai, T. Vreven, J. A. Montgomery, Jr., 
 J. E. Peralta, F. Ogliaro, M. Bearpark, J. J. Heyd, E. Brothers, 
 K. N. Kudin, V. N. Staroverov, T. Keith, R. Kobayashi, J. Normand, 
 K. Raghavachari, A. Rendell, J. C. Burant, S. S. Iyengar, J. Tomasi, 
 M. Cossi, N. Rega, J. M. Millam, M. Klene, J. E. Knox, J. B. Cross, 
 V. Bakken, C. Adamo, J. Jaramillo, R. Gomperts, R. E. Stratmann, 
 O. Yazyev, A. J. Austin, R. Cammi, C. Pomelli, J. W. Ochterski, 
 R. L. Martin, K. Morokuma, V. G. Zakrzewski, G. A. Voth, 
 P. Salvador, J. J. Dannenberg, S. Dapprich, A. D. Daniels, 
 O. Farkas, J. B. Foresman, J. V. Ortiz, J. Cioslowski, 
 and D. J. Fox, Gaussian, Inc., Wallingford CT, 2010.
 
 ******************************************
 Gaussian 09:  EM64L-G09RevC.01 23-Sep-2011
                 3-Aug-2021 
 ******************************************
 %nprocshared=4
 Will use up to    4 processors via shared memory.
 ------------------------
 # rhf/STO-3G nmr pop=nbo
 ------------------------
 1/38=1/1;
 2/12=2,17=6,18=5,40=1/2;
 3/6=3,11=1,16=1,25=1,30=1,116=1/1,2,8,3;
 4//1;
 5/5=2,38=5/2;
 8/6=1,10=90,11=11/1;
 10/13=100,45=16/2;
 6/7=2,8=2,9=2,10=2,28=1,64=1/1,7;
 99/9=1/99;
 -------
 comment
 -------
 Charge =  0 Multiplicity = 1
 Symbolic Z-Matrix:
 6                     0.38141   0.48672  -3.44058 
 6                    -0.33489   0.08878  -2.14919 
 6                     1.28109  -0.26863  -0.21159 
 6                    -0.91464   1.00542   0.13673 
 6                     0.36899   0.46572   0.80793 
 6                    -0.68745   1.343    -1.33281 
 6                     0.48963  -0.92804  -1.34149 
 8                     2.11821  -1.22304   0.42896 
 6                     0.09361  -0.29845   2.13831 
 6                    -0.63936  -1.63167   1.96542 
 6                    -0.6701    0.57537   3.14175 
 1                    -0.22313   1.19458  -4.01752 
 1                     1.34856   0.9562   -3.23145 
 1                     0.56065  -0.39037  -4.07141 
 1                    -1.27084  -0.40721  -2.4394 
 1                     1.95496   0.47436  -0.65832 
 1                    -1.25218   1.90553   0.66425 
 1                    -1.73126   0.27861   0.20438 
 1                     0.94949   1.35204   1.10872 
 1                     0.11033   2.09312  -1.40862 
 1                    -1.58893   1.80673  -1.75114 
 1                     1.16036  -1.50072  -1.99414 
 1                    -0.18754  -1.67784  -0.91376 
 1                     2.68558  -1.62301  -0.25181 
 1                     1.06512  -0.51873   2.60073 
 1                    -1.63288  -1.50097   1.52704 
 1                    -0.07567  -2.32466   1.33558 
 1                    -0.7728   -2.12123   2.93682 
 1                    -1.69536   0.77216   2.81214 
 1                    -0.16502   1.536     3.28702 
 1                    -0.72595   0.08025   4.11745 
 
                          Input orientation:                          
 ---------------------------------------------------------------------
 Center     Atomic      Atomic             Coordinates (Angstroms)
 Number     Number       Type             X           Y           Z
 ---------------------------------------------------------------------
      1          6           0        0.381407    0.486721   -3.440582
      2          6           0       -0.334889    0.088783   -2.149187
      3          6           0        1.281089   -0.268630   -0.211588
      4          6           0       -0.914639    1.005420    0.136726
      5          6           0        0.368987    0.465720    0.807926
      6          6           0       -0.687449    1.342996   -1.332808
      7          6           0        0.489632   -0.928040   -1.341487
      8          8           0        2.118205   -1.223043    0.428961
      9          6           0        0.093611   -0.298448    2.138314
     10          6           0       -0.639357   -1.631667    1.965424
     11          6           0       -0.670100    0.575374    3.141748
     12          1           0       -0.223127    1.194579   -4.017525
     13          1           0        1.348558    0.956197   -3.231446
     14          1           0        0.560652   -0.390368   -4.071412
     15          1           0       -1.270839   -0.407211   -2.439401
     16          1           0        1.954965    0.474359   -0.658320
     17          1           0       -1.252176    1.905533    0.664255
     18          1           0       -1.731262    0.278609    0.204376
     19          1           0        0.949486    1.352039    1.108718
     20          1           0        0.110330    2.093124   -1.408623
     21          1           0       -1.588930    1.806728   -1.751142
     22          1           0        1.160362   -1.500724   -1.994139
     23          1           0       -0.187541   -1.677845   -0.913760
     24          1           0        2.685582   -1.623010   -0.251808
     25          1           0        1.065122   -0.518734    2.600733
     26          1           0       -1.632877   -1.500972    1.527041
     27          1           0       -0.075671   -2.324665    1.335575
     28          1           0       -0.772804   -2.121230    2.936821
     29          1           0       -1.695357    0.772155    2.812141
     30          1           0       -0.165025    1.536004    3.287017
     31          1           0       -0.725945    0.080247    4.117453
 ---------------------------------------------------------------------
                    Distance matrix (angstroms):
                    1          2          3          4          5
     1  C    0.000000
     2  C    1.529423   0.000000
     3  C    3.436042   2.548219   0.000000
     4  C    3.840041   2.530164   2.562371   0.000000
     5  C    4.248578   3.063012   1.552613   1.545795   0.000000
     6  C    2.513637   1.537473   2.780218   1.524828   2.543308
     7  C    2.533666   1.538228   1.529018   2.809868   2.564585
     8  O    4.573087   3.792810   1.421960   3.774863   2.460752
     9  C    5.641223   4.326226   2.633065   2.592874   1.558755
    10  C    5.895288   4.470199   3.207080   3.220893   2.599152
    11  C    6.666377   5.323827   3.970433   3.045471   2.557039
    12  H    1.095166   2.173927   4.346125   4.215657   4.915975
    13  H    1.095229   2.181212   3.259493   4.058209   4.185290
    14  H    1.095153   2.174058   3.928370   4.672594   4.957577
    15  H    2.128707   1.098288   3.390382   2.959532   3.741145
    16  H    3.196438   2.759490   1.098049   3.024690   2.159926
    17  H    4.640184   3.472384   3.451306   1.096550   2.172987
    18  H    4.218104   2.743201   3.089782   1.095311   2.193246
    19  H    4.665577   3.722818   2.116538   2.130698   1.101370
    20  H    2.604395   2.182668   2.895074   2.149829   2.761963
    21  H    2.911847   2.163883   3.861909   2.158890   3.490067
    22  H    2.578547   2.187773   2.170280   3.889341   3.513509
    23  H    3.375481   2.160779   2.153092   2.971886   2.805137
    24  H    4.464131   3.956454   1.951554   4.474504   3.294304
    25  H    6.162458   4.989073   2.831668   3.509107   2.160535
    26  H    5.717127   4.210315   3.610082   2.954801   2.896975
    27  H    5.560979   4.246822   2.908916   3.637386   2.874436
    28  H    6.986049   5.562680   4.190833   4.199594   3.539518
    29  H    6.594768   5.189668   4.368685   2.796745   2.893492
    30  H    6.830825   5.628110   4.193827   3.281429   2.752557
    31  H    7.649532   6.278835   4.784401   4.091178   3.507197
                    6          7          8          9         10
     6  C    0.000000
     7  C    2.557968   0.000000
     8  O    4.190475   2.423585   0.000000
     9  C    3.918301   3.558403   2.806375   0.000000
    10  C    4.441764   3.564459   3.183055   1.531211   0.000000
    11  C    4.539955   4.868740   4.285809   1.534177   2.501143
    12  H    2.728613   3.489229   5.576556   6.342224   6.629977
    13  H    2.810652   2.803578   4.328975   5.655382   6.136473
    14  H    3.473077   2.783277   4.834530   6.227943   6.278872
    15  H    2.151305   2.139144   4.514277   4.777973   4.615251
    16  H    2.862135   2.140243   2.022375   3.447177   4.248516
    17  H    2.150261   3.884074   4.604652   2.973471   3.818426
    18  H    2.141355   2.962780   4.138091   2.720895   2.818280
    19  H    2.939504   3.378421   2.908439   2.125253   3.487244
    20  H    1.097676   3.045622   4.290133   4.277927   5.081368
    21  H    1.096685   3.459363   5.260723   4.731869   5.151419
    22  H    3.455214   1.097178   2.620302   4.434026   4.351353
    23  H    3.090467   1.097142   2.706697   3.361092   2.914785
    24  H    4.619858   2.548054   0.972284   3.766359   3.996425
    25  H    4.691513   4.004974   2.514284   1.098267   2.132484
    26  H    4.142550   3.614104   3.918372   2.191000   1.093775
    27  H    4.576710   3.071936   2.616986   2.186001   1.093022
    28  H    5.498898   4.617506   3.931162   2.170443   1.095943
    29  H    4.303759   4.991740   4.919718   2.191037   2.758701
    30  H    4.653274   5.284235   4.581917   2.179823   3.464930
    31  H    5.594762   5.682807   4.836603   2.175333   2.751250
                   11         12         13         14         15
    11  C    0.000000
    12  H    7.199888   0.000000
    13  H    6.696089   1.773398   0.000000
    14  H    7.380860   1.768975   1.771885   0.000000
    15  H    5.698735   2.480707   3.057361   2.453183   0.000000
    16  H    4.619706   4.067808   2.687168   3.786959   3.788829
    17  H    2.871604   4.845973   4.779282   5.566332   3.870634
    18  H    3.137242   4.575798   4.663614   4.897221   2.769819
    19  H    2.712836   5.261005   4.376410   5.479135   4.540258
    20  H    4.859888   2.779379   2.479616   3.668920   3.036743
    21  H    5.128435   2.715996   3.397578   3.851180   2.340172
    22  H    5.834218   3.643184   2.757319   2.430557   2.702733
    23  H    4.664441   4.229118   3.830071   3.491154   2.261775
    24  H    5.254495   5.529920   4.161512   4.541377   4.681559
    25  H    2.121501   6.956750   6.022463   6.692420   5.556267
    26  H    2.800971   6.324207   6.129423   6.114547   4.130380
    27  H    3.467828   6.408003   5.800876   5.777710   4.399489
    28  H    2.706329   7.723967   7.212368   7.340935   5.664774
    29  H    1.094768   6.999303   6.769360   7.336508   5.399057
    30  H    1.094994   7.312748   6.716954   7.640942   6.147420
    31  H    1.095569   8.226325   7.686167   8.302670   6.597488
                   16         17         18         19         20
    16  H    0.000000
    17  H    3.752761   0.000000
    18  H    3.790888   1.757241   0.000000
    19  H    2.214437   2.313270   3.025970   0.000000
    20  H    2.566327   2.487657   3.047244   2.755067   0.000000
    21  H    3.940641   2.440759   2.485852   3.850856   1.756937
    22  H    2.513316   4.948735   4.044871   4.220242   3.789609
    23  H    3.047551   4.057607   2.731486   3.816208   3.814947
    24  H    2.257877   5.366165   4.830400   3.703508   4.666883
    25  H    3.521290   3.872582   3.768029   2.395678   4.879382
    26  H    4.642235   3.534631   2.219466   3.870823   4.957260
    27  H    3.991696   4.441780   3.285974   3.823684   5.204045
    28  H    5.206039   4.648567   3.760867   4.286239   6.117483
    29  H    5.045556   2.468678   2.654301   3.198924   4.777062
    30  H    4.602948   2.863098   3.679241   2.453766   4.736585
    31  H    5.490957   3.941214   4.045019   3.671105   5.940416
                   21         22         23         24         25
    21  H    0.000000
    22  H    4.307771   0.000000
    23  H    3.848031   1.736500   0.000000
    24  H    5.681774   2.318828   2.948902   0.000000
    25  H    5.602730   4.699598   3.906964   3.461546   0.000000
    26  H    4.657176   4.494540   2.842145   4.672075   3.065422
    27  H    5.374587   3.646046   2.343161   3.261384   2.482624
    28  H    6.170244   5.332591   3.919962   4.730329   2.461488
    29  H    4.680301   6.035018   4.707266   5.858091   3.054724
    30  H    5.242503   6.234499   5.289221   5.534312   2.491224
    31  H    6.177854   6.588564   5.356666   5.799141   2.422218
                   26         27         28         29         30
    26  H    0.000000
    27  H    1.772010   0.000000
    28  H    1.764065   1.758228   0.000000
    29  H    2.611991   3.793933   3.039462   0.000000
    30  H    3.804646   4.326762   3.723895   1.775074   0.000000
    31  H    3.167493   3.734340   2.498517   1.767013   1.767338
                   31
    31  H    0.000000
 Stoichiometry    C10H20O
 Framework group  C1[X(C10H20O)]
 Deg. of freedom    87
 Full point group                 C1      NOp   1
 Largest Abelian subgroup         C1      NOp   1
 Largest concise Abelian subgroup C1      NOp   1
                         Standard orientation:                         
 ---------------------------------------------------------------------
 Center     Atomic      Atomic             Coordinates (Angstroms)
 Number     Number       Type             X           Y           Z
 ---------------------------------------------------------------------
      1          6           0        3.506547   -0.120096   -0.020097
      2          6           0        2.115632   -0.378719    0.560938
      3          6           0        0.304208    0.974866   -0.613783
      4          6           0       -0.081248   -1.488898   -0.024684
      5          6           0       -0.694601   -0.213383   -0.646247
      6          6           0        1.433488   -1.530875   -0.194732
      7          6           0        1.265950    0.903485    0.572747
      8          8           0       -0.371392    2.225989   -0.628858
      9          6           0       -2.129523    0.097893   -0.122966
     10          6           0       -2.192064    0.519941    1.347602
     11          6           0       -3.081489   -1.082797   -0.354125
     12          1           0        4.109752   -1.034042   -0.004745
     13          1           0        3.446813    0.231217   -1.055731
     14          1           0        4.036642    0.639239    0.564514
     15          1           0        2.255006   -0.687322    1.605723
     16          1           0        0.899832    0.940774   -1.535619
     17          1           0       -0.520856   -2.374407   -0.499068
     18          1           0       -0.313359   -1.558682    1.043473
     19          1           0       -0.828134   -0.432114   -1.717387
     20          1           0        1.674857   -1.490690   -1.264788
     21          1           0        1.822410   -2.487518    0.174444
     22          1           0        1.900465    1.798009    0.604624
     23          1           0        0.687951    0.940476    1.504557
     24          1           0        0.303033    2.926226   -0.641290
     25          1           0       -2.525214    0.931875   -0.718024
     26          1           0       -1.833314   -0.267170    2.017004
     27          1           0       -1.604869    1.422618    1.534876
     28          1           0       -3.225076    0.747085    1.634627
     29          1           0       -2.824853   -1.941496    0.274597
     30          1           0       -3.058977   -1.403747   -1.400785
     31          1           0       -4.112369   -0.796742   -0.118055
 ---------------------------------------------------------------------
 Rotational constants (GHZ):      1.7306109      0.7484378      0.6177478
 Standard basis: STO-3G (5D, 7F)
 There are    75 symmetry adapted basis functions of A   symmetry.
 Integral buffers will be    131072 words long.
 Raffenetti 1 integral format.
 Two-electron integral symmetry is turned on.
    75 basis functions,   225 primitive gaussians,    75 cartesian basis functions
    44 alpha electrons       44 beta electrons
       nuclear repulsion energy       696.4564890669 Hartrees.
 NAtoms=   31 NActive=   31 NUniq=   31 SFac= 1.00D+00 NAtFMM=   60 NAOKFM=F Big=F
 One-electron integrals computed using PRISM.
 NBasis=    75 RedAO= T  NBF=    75
 NBsUse=    75 1.00D-06 NBFU=    75
 Harris functional with IExCor=  205 diagonalized for initial guess.
 ExpMin= 1.69D-01 ExpMax= 1.31D+02 ExpMxC= 1.31D+02 IAcc=1 IRadAn=         1 AccDes= 0.00D+00
 HarFok:  IExCor=  205 AccDes= 0.00D+00 IRadAn=         1 IDoV= 1
 ScaDFX=  1.000000  1.000000  1.000000  1.000000
 FoFCou: FMM=F IPFlag=           0 FMFlag=      100000 FMFlg1=           0
         NFxFlg=           0 DoJE=T BraDBF=F KetDBF=T FulRan=T
         Omega=  0.000000  0.000000  1.000000  0.000000  0.000000 ICntrl=     500 IOpCl=  0
         NMat0=    1 NMatS0=    1 NMatT0=    0 NMatD0=    1 NMtDS0=    0 NMtDT0=    0
         I1Cent=           4 NGrid=           0.
 Petite list used in FoFCou.
 Initial guess orbital symmetries:
       Occupied  (A) (A) (A) (A) (A) (A) (A) (A) (A) (A) (A) (A)
                 (A) (A) (A) (A) (A) (A) (A) (A) (A) (A) (A) (A)
                 (A) (A) (A) (A) (A) (A) (A) (A) (A) (A) (A) (A)
                 (A) (A) (A) (A) (A) (A) (A) (A)
       Virtual   (A) (A) (A) (A) (A) (A) (A) (A) (A) (A) (A) (A)
                 (A) (A) (A) (A) (A) (A) (A) (A) (A) (A) (A) (A)
                 (A) (A) (A) (A) (A) (A) (A)
 The electronic state of the initial guess is 1-A.
 Requested convergence on RMS density matrix=1.00D-08 within 128 cycles.
 Requested convergence on MAX density matrix=1.00D-06.
 Requested convergence on             energy=1.00D-06.
 No special actions if energy rises.
 Keep R1 ints in memory in canonical form, NReq=4898789.
 SCF Done:  E(RHF) =  -459.609776781     A.U. after   10 cycles
             Convg  =    0.7917D-08             -V/T =  2.0089
 Range of M.O.s used for correlation:     1    75
 NBasis=    75 NAE=    44 NBE=    44 NFC=     0 NFV=     0
 NROrb=     75 NOA=    44 NOB=    44 NVA=    31 NVB=    31
          Differentiating once with respect to magnetic field using GIAOs.
          Electric field/nuclear overlap derivatives assumed to be zero.
          Keep R3 ints in memory in canonical form, NReq=4863575.
 FoFCou: FMM=F IPFlag=           0 FMFlag=           0 FMFlg1=           0
         NFxFlg=           0 DoJE=F BraDBF=F KetDBF=T FulRan=T
         Omega=  0.000000  0.000000  1.000000  0.000000  0.000000 ICntrl=    6100 IOpCl=  0
         NMat0=    1 NMatS0=    1 NMatT0=    0 NMatD0=    1 NMtDS0=    0 NMtDT0=    0
         I1Cent=           7 NGrid=          31.
 Symmetry not used in FoFCou.
          There are     3 degrees of freedom in the 1st order CPHF.  IDoFFX=0.
      3 vectors produced by pass  0 Test12= 4.55D-14 3.33D-08 XBig12= 7.28D+00 5.03D-01.
 AX will form     3 AO Fock derivatives at one time.
      3 vectors produced by pass  1 Test12= 4.55D-14 3.33D-08 XBig12= 1.13D-02 1.52D-02.
      3 vectors produced by pass  2 Test12= 4.55D-14 3.33D-08 XBig12= 1.20D-04 3.15D-03.
      3 vectors produced by pass  3 Test12= 4.55D-14 3.33D-08 XBig12= 1.59D-06 3.99D-04.
      3 vectors produced by pass  4 Test12= 4.55D-14 3.33D-08 XBig12= 1.70D-08 2.87D-05.
      3 vectors produced by pass  5 Test12= 4.55D-14 3.33D-08 XBig12= 2.21D-10 2.01D-06.
      3 vectors produced by pass  6 Test12= 4.55D-14 3.33D-08 XBig12= 2.10D-12 2.39D-07.
 Inverted reduced A of dimension    21 with in-core refinement.
 Calculating GIAO nuclear magnetic shielding tensors.
 SCF GIAO Magnetic shielding tensor (ppm):
      1  C    Isotropic =   220.8657   Anisotropy =    27.1367
   XX=   236.4831   YX=     4.9096   ZX=    -4.7383
   XY=     3.9622   YY=   214.7621   ZY=     0.8448
   XZ=    -9.5981   YZ=     3.7952   ZZ=   211.3517
   Eigenvalues:   207.7198   215.9204   238.9568
      2  C    Isotropic =   216.2274   Anisotropy =     9.7877
   XX=   222.2901   YX=    -1.3463   ZX=     2.2863
   XY=     1.1923   YY=   218.9028   ZY=     2.2476
   XZ=     2.7934   YZ=     3.0879   ZZ=   207.4892
   Eigenvalues:   206.5014   219.4282   222.7525
      3  C    Isotropic =   189.3844   Anisotropy =    42.7199
   XX=   186.6469   YX=   -14.0496   ZX=     2.9420
   XY=   -12.5302   YY=   212.1867   ZY=     1.0610
   XZ=     2.3813   YZ=     3.1638   ZZ=   169.3195
   Eigenvalues:   168.4469   181.8419   217.8643
      4  C    Isotropic =   219.5146   Anisotropy =    12.7791
   XX=   226.6889   YX=    -2.5651   ZX=     0.1643
   XY=    -2.5697   YY=   222.4947   ZY=    -2.6470
   XZ=     0.2701   YZ=    -3.4237   ZZ=   209.3601
   Eigenvalues:   208.6860   221.8238   228.0339
      5  C    Isotropic =   210.3677   Anisotropy =    17.1515
   XX=   221.3796   YX=     4.2050   ZX=    -3.0783
   XY=    -2.3489   YY=   211.9028   ZY=    -0.4736
   XZ=    -2.6638   YZ=     1.2386   ZZ=   197.8205
   Eigenvalues:   197.4590   211.8420   221.8020
      6  C    Isotropic =   217.0425   Anisotropy =    17.3775
   XX=   223.6339   YX=     5.5193   ZX=    -0.8048
   XY=     8.0791   YY=   217.6744   ZY=     5.1115
   XZ=     1.7664   YZ=     4.8597   ZZ=   209.8193
   Eigenvalues:   206.9295   215.5706   228.6275
      7  C    Isotropic =   215.0534   Anisotropy =    18.4879
   XX=   220.4761   YX=    -5.2067   ZX=     6.8891
   XY=    -4.2622   YY=   219.7679   ZY=     0.5668
   XZ=     9.5726   YZ=    -4.1335   ZZ=   204.9162
   Eigenvalues:   201.3671   216.4144   227.3786
      8  O    Isotropic =   358.1834   Anisotropy =   101.1773
   XX=   375.5086   YX=    65.5398   ZX=    10.6867
   XY=    38.2331   YY=   371.9081   ZY=    -7.6668
   XZ=     0.9554   YZ=    -1.6872   ZZ=   327.1336
   Eigenvalues:   316.5844   332.3309   425.6350
      9  C    Isotropic =   214.7297   Anisotropy =    13.4006
   XX=   223.0904   YX=     0.7921   ZX=    -1.7309
   XY=     1.3305   YY=   210.0458   ZY=     5.8455
   XZ=    -3.6180   YZ=     6.5134   ZZ=   211.0530
   Eigenvalues:   203.9951   216.5306   223.6635
     10  C    Isotropic =   223.9828   Anisotropy =    20.2008
   XX=   220.2253   YX=     1.2237   ZX=    -2.6053
   XY=     1.9933   YY=   217.8963   ZY=     6.6963
   XZ=    -1.1537   YZ=     9.9425   ZZ=   233.8269
   Eigenvalues:   213.5964   220.9020   237.4501
     11  C    Isotropic =   221.1036   Anisotropy =    26.4605
   XX=   225.4394   YX=    11.6470   ZX=     3.7744
   XY=    13.1605   YY=   223.6165   ZY=     8.5384
   XZ=     1.0484   YZ=     5.4809   ZZ=   214.2549
   Eigenvalues:   208.9030   215.6639   238.7439
     12  H    Isotropic =    32.4725   Anisotropy =    13.9807
   XX=    37.7205   YX=    -5.8109   ZX=    -0.6149
   XY=    -5.7025   YY=    33.5150   ZY=     0.2010
   XZ=    -0.8641   YZ=     0.6597   ZZ=    26.1821
   Eigenvalues:    26.1340    29.4906    41.7930
     13  H    Isotropic =    32.7000   Anisotropy =    10.3070
   XX=    33.0865   YX=     0.9422   ZX=    -3.2791
   XY=     1.0544   YY=    28.4425   ZY=    -3.3790
   XZ=    -3.2409   YZ=    -3.3485   ZZ=    36.5710
   Eigenvalues:    27.2253    31.3033    39.5714
     14  H    Isotropic =    32.5881   Anisotropy =    13.9218
   XX=    36.7459   YX=     5.4151   ZX=     3.2156
   XY=     5.1873   YY=    32.1018   ZY=     3.8241
   XZ=     3.0339   YZ=     3.4655   ZZ=    28.9167
   Eigenvalues:    26.5166    29.3785    41.8693
     15  H    Isotropic =    32.4101   Anisotropy =    13.0628
   XX=    30.0220   YX=    -1.2173   ZX=     3.1990
   XY=    -1.2402   YY=    28.1963   ZY=    -3.5885
   XZ=     3.0236   YZ=    -3.6679   ZZ=    39.0119
   Eigenvalues:    27.0576    29.0541    41.1186
     16  H    Isotropic =    31.9194   Anisotropy =     9.2290
   XX=    31.4023   YX=    -0.2120   ZX=    -4.7339
   XY=    -0.1109   YY=    29.1714   ZY=    -1.4738
   XZ=    -3.4268   YZ=    -2.4551   ZZ=    35.1846
   Eigenvalues:    27.6669    30.0193    38.0721
     17  H    Isotropic =    32.4348   Anisotropy =    13.6055
   XX=    32.9458   YX=     3.1764   ZX=     2.0478
   XY=     3.4238   YY=    38.6840   ZY=     4.0213
   XZ=     2.1463   YZ=     4.1028   ZZ=    25.6745
   Eigenvalues:    24.3511    31.4481    41.5051
     18  H    Isotropic =    32.6977   Anisotropy =     9.2617
   XX=    33.0352   YX=    -0.5611   ZX=    -3.1550
   XY=    -0.4193   YY=    29.3990   ZY=    -3.7472
   XZ=    -3.4444   YZ=    -3.9385   ZZ=    35.6588
   Eigenvalues:    26.9301    32.2908    38.8721
     19  H    Isotropic =    32.0096   Anisotropy =    11.5870
   XX=    29.9557   YX=     1.0094   ZX=     1.5176
   XY=     1.7293   YY=    27.1983   ZY=     2.6154
   XZ=     1.8867   YZ=     2.1813   ZZ=    38.8748
   Eigenvalues:    26.4093    29.8852    39.7343
     20  H    Isotropic =    32.9002   Anisotropy =    10.7548
   XX=    32.4080   YX=    -0.8064   ZX=    -3.4668
   XY=    -0.6485   YY=    29.0418   ZY=     3.3293
   XZ=    -3.3501   YZ=     3.5812   ZZ=    37.2508
   Eigenvalues:    27.7155    30.9150    40.0700
     21  H    Isotropic =    32.3772   Anisotropy =    14.5623
   XX=    31.4031   YX=    -4.1373   ZX=     1.4826
   XY=    -4.2676   YY=    39.9003   ZY=    -2.2207
   XZ=     1.6832   YZ=    -2.3721   ZZ=    25.8281
   Eigenvalues:    25.2935    29.7526    42.0854
     22  H    Isotropic =    33.0802   Anisotropy =    12.2597
   XX=    34.3155   YX=     3.9110   ZX=     2.1262
   XY=     4.2982   YY=    38.1768   ZY=     2.1120
   XZ=     1.5236   YZ=     1.7584   ZZ=    26.7482
   Eigenvalues:    26.2331    31.7542    41.2533
     23  H    Isotropic =    32.1880   Anisotropy =     9.9682
   XX=    32.7280   YX=    -1.0861   ZX=    -3.2747
   XY=    -1.1898   YY=    27.7173   ZY=     2.7800
   XZ=    -3.1040   YZ=     2.7942   ZZ=    36.1188
   Eigenvalues:    26.8707    30.8599    38.8335
     24  H    Isotropic =    35.1720   Anisotropy =    19.4897
   XX=    34.9309   YX=     6.6082   ZX=    -0.1190
   XY=     4.9367   YY=    45.4152   ZY=    -2.4893
   XZ=     0.3797   YZ=    -2.2453   ZZ=    25.1698
   Eigenvalues:    24.8234    32.5274    48.1651
     25  H    Isotropic =    31.7721   Anisotropy =    11.8491
   XX=    32.7116   YX=    -3.0289   ZX=     3.1069
   XY=    -2.8366   YY=    33.8065   ZY=    -5.4968
   XZ=     2.8605   YZ=    -5.3175   ZZ=    28.7982
   Eigenvalues:    25.2008    30.4440    39.6715
     26  H    Isotropic =    32.7536   Anisotropy =     9.2836
   XX=    30.4218   YX=    -2.0966   ZX=    -0.0154
   XY=    -2.1271   YY=    30.9168   ZY=    -3.8283
   XZ=    -0.0861   YZ=    -3.9831   ZZ=    36.9221
   Eigenvalues:    27.6385    31.6796    38.9426
     27  H    Isotropic =    32.2421   Anisotropy =     9.6675
   XX=    31.8181   YX=     4.0591   ZX=    -1.4570
   XY=     3.8069   YY=    34.4751   ZY=     4.6636
   XZ=    -1.5472   YZ=     4.9393   ZZ=    30.4333
   Eigenvalues:    25.2988    32.7405    38.6871
     28  H    Isotropic =    32.5381   Anisotropy =    14.8637
   XX=    38.2428   YX=    -3.0520   ZX=    -5.3928
   XY=    -2.8413   YY=    28.2133   ZY=     3.0951
   XZ=    -5.6672   YZ=     3.1345   ZZ=    31.1584
   Eigenvalues:    26.2060    28.9611    42.4473
     29  H    Isotropic =    32.5776   Anisotropy =     9.7273
   XX=    31.9376   YX=     1.8778   ZX=     0.3972
   XY=     1.9863   YY=    37.0015   ZY=    -4.0578
   XZ=     0.2898   YZ=    -4.0677   ZZ=    28.7937
   Eigenvalues:    26.8926    31.7778    39.0625
     30  H    Isotropic =    32.5043   Anisotropy =    12.9034
   XX=    31.2709   YX=     2.8360   ZX=     2.9914
   XY=     2.8455   YY=    29.4797   ZY=     5.5784
   XZ=     2.7958   YZ=     5.0378   ZZ=    36.7622
   Eigenvalues:    26.3271    30.0792    41.1065
     31  H    Isotropic =    32.4107   Anisotropy =    14.7257
   XX=    42.1473   YX=     0.3625   ZX=    -0.8989
   XY=     0.6827   YY=    27.9596   ZY=     1.1644
   XZ=    -1.1102   YZ=     1.3005   ZZ=    27.1252
   Eigenvalues:    26.1626    28.8417    42.2278
 End of Minotr Frequency-dependent properties file   721 does not exist.
 End of Minotr Frequency-dependent properties file   722 does not exist.

 **********************************************************************

            Population analysis using the SCF density.

 **********************************************************************

 Orbital symmetries:
       Occupied  (A) (A) (A) (A) (A) (A) (A) (A) (A) (A) (A) (A)
                 (A) (A) (A) (A) (A) (A) (A) (A) (A) (A) (A) (A)
                 (A) (A) (A) (A) (A) (A) (A) (A) (A) (A) (A) (A)
                 (A) (A) (A) (A) (A) (A) (A) (A)
       Virtual   (A) (A) (A) (A) (A) (A) (A) (A) (A) (A) (A) (A)
                 (A) (A) (A) (A) (A) (A) (A) (A) (A) (A) (A) (A)
                 (A) (A) (A) (A) (A) (A) (A)
 The electronic state is 1-A.
 Alpha  occ. eigenvalues --  -20.23849 -11.08487 -11.04763 -11.04119 -11.04002
 Alpha  occ. eigenvalues --  -11.03756 -11.03573 -11.03509 -11.03346 -11.02523
 Alpha  occ. eigenvalues --  -11.02119  -1.27911  -1.08153  -1.03239  -0.96705
 Alpha  occ. eigenvalues --   -0.94511  -0.88389  -0.87859  -0.80459  -0.78324
 Alpha  occ. eigenvalues --   -0.72470  -0.67240  -0.63843  -0.61441  -0.59443
 Alpha  occ. eigenvalues --   -0.57181  -0.55477  -0.54565  -0.52898  -0.51910
 Alpha  occ. eigenvalues --   -0.51267  -0.50237  -0.49106  -0.47370  -0.46971
 Alpha  occ. eigenvalues --   -0.45396  -0.43915  -0.42726  -0.41751  -0.41009
 Alpha  occ. eigenvalues --   -0.39826  -0.38430  -0.35771  -0.32938
 Alpha virt. eigenvalues --    0.52880   0.55694   0.56634   0.60329   0.60601
 Alpha virt. eigenvalues --    0.61248   0.62298   0.64895   0.65617   0.67272
 Alpha virt. eigenvalues --    0.67968   0.69242   0.70140   0.71026   0.72214
 Alpha virt. eigenvalues --    0.72517   0.73259   0.74603   0.75692   0.76084
 Alpha virt. eigenvalues --    0.76937   0.77960   0.79348   0.79519   0.80275
 Alpha virt. eigenvalues --    0.81506   0.81860   0.83810   0.85141   0.86254
 Alpha virt. eigenvalues --    0.87523
          Condensed to atoms (all electrons):
              1          2          3          4          5          6
     1  C    4.742264   0.364678   0.000025   0.000759   0.000012  -0.024956
     2  C    0.364678   4.746958  -0.019351  -0.022634  -0.002453   0.362589
     3  C    0.000025  -0.019351   4.741846  -0.020811   0.354446  -0.007627
     4  C    0.000759  -0.022634  -0.020811   4.756466   0.360103   0.363286
     5  C    0.000012  -0.002453   0.354446   0.360103   4.777056  -0.021210
     6  C   -0.024956   0.362589  -0.007627   0.363286  -0.021210   4.756150
     7  C   -0.024256   0.359573   0.357483  -0.006792  -0.022040  -0.021872
     8  O   -0.000001   0.000238   0.268518   0.000176  -0.015391   0.000007
     9  C    0.000000   0.000011  -0.017515  -0.019489   0.357308   0.000593
    10  C    0.000000   0.000008  -0.000922  -0.001790  -0.020327   0.000006
    11  C    0.000000   0.000000   0.000562  -0.002309  -0.021859   0.000012
    12  H    0.382393  -0.020083  -0.000012   0.000015   0.000000  -0.002247
    13  H    0.382009  -0.020783  -0.000008   0.000014   0.000007  -0.002302
    14  H    0.382475  -0.020229   0.000016  -0.000018  -0.000001   0.001301
    15  H   -0.024914   0.383500   0.001193  -0.000341   0.000012  -0.023657
    16  H    0.000040  -0.001900   0.376557   0.000480  -0.024504  -0.000163
    17  H   -0.000017   0.001284   0.001118   0.384043  -0.020973  -0.021718
    18  H    0.000008  -0.002446  -0.000022   0.381302  -0.021412  -0.023642
    19  H    0.000001   0.000021  -0.026185  -0.025047   0.380823  -0.000392
    20  H   -0.004671  -0.021813  -0.000249  -0.023419  -0.002324   0.381532
    21  H   -0.000307  -0.021482   0.000066  -0.021036   0.001209   0.383379
    22  H   -0.005605  -0.020024  -0.021303   0.000057   0.001100   0.001058
    23  H    0.001317  -0.021465  -0.022979   0.000022  -0.002280   0.000433
    24  H    0.000001   0.000006  -0.040987  -0.000031   0.002335  -0.000001
    25  H    0.000000  -0.000001  -0.001776   0.001088  -0.022614  -0.000013
    26  H    0.000000   0.000002   0.000019  -0.000637  -0.001505  -0.000007
    27  H    0.000000   0.000003  -0.000098   0.000040  -0.001507  -0.000001
    28  H    0.000000   0.000000   0.000000   0.000015   0.001113   0.000000
    29  H    0.000000   0.000000  -0.000002  -0.000605  -0.001335   0.000006
    30  H    0.000000   0.000000   0.000014  -0.000089  -0.002420  -0.000002
    31  H    0.000000   0.000000  -0.000012   0.000022   0.001149   0.000000
              7          8          9         10         11         12
     1  C   -0.024256  -0.000001   0.000000   0.000000   0.000000   0.382393
     2  C    0.359573   0.000238   0.000011   0.000008   0.000000  -0.020083
     3  C    0.357483   0.268518  -0.017515  -0.000922   0.000562  -0.000012
     4  C   -0.006792   0.000176  -0.019489  -0.001790  -0.002309   0.000015
     5  C   -0.022040  -0.015391   0.357308  -0.020327  -0.021859   0.000000
     6  C   -0.021872   0.000007   0.000593   0.000006   0.000012  -0.002247
     7  C    4.790642  -0.018653   0.000107  -0.000354  -0.000004   0.001291
     8  O   -0.018653   7.843639  -0.001548  -0.000460   0.000003   0.000000
     9  C    0.000107  -0.001548   4.733548   0.364130   0.363960   0.000000
    10  C   -0.000354  -0.000460   0.364130   4.743054  -0.026435   0.000000
    11  C   -0.000004   0.000003   0.363960  -0.026435   4.744155   0.000000
    12  H    0.001291   0.000000   0.000000   0.000000   0.000000   0.629737
    13  H   -0.001957  -0.000002   0.000000   0.000000   0.000000  -0.021645
    14  H   -0.002354   0.000000   0.000000   0.000000   0.000000  -0.021707
    15  H   -0.024727  -0.000005   0.000000   0.000001   0.000000  -0.002220
    16  H   -0.029090  -0.020646   0.001030  -0.000011  -0.000012  -0.000009
    17  H    0.000045  -0.000003  -0.000121   0.000035  -0.000546  -0.000001
    18  H   -0.000056  -0.000002  -0.003357  -0.000586  -0.000173   0.000000
    19  H    0.001332   0.000316  -0.024675   0.001201  -0.002635   0.000000
    20  H   -0.000076   0.000001   0.000005  -0.000001   0.000000  -0.000092
    21  H    0.001156   0.000000  -0.000013   0.000000   0.000000   0.000168
    22  H    0.381062  -0.001368  -0.000012   0.000005   0.000000   0.000083
    23  H    0.381331  -0.000430   0.000104  -0.000662  -0.000003  -0.000038
    24  H   -0.003446   0.258655   0.000087   0.000014   0.000000   0.000000
    25  H    0.000012   0.000200   0.382553  -0.024178  -0.024844   0.000000
    26  H   -0.000051   0.000008  -0.020477   0.381745  -0.002063   0.000000
    27  H   -0.000678   0.000352  -0.019410   0.382947   0.001326   0.000000
    28  H    0.000008   0.000007  -0.019948   0.381972  -0.002744   0.000000
    29  H    0.000000   0.000000  -0.020342  -0.002472   0.382206   0.000000
    30  H    0.000000   0.000000  -0.020180   0.001326   0.381890   0.000000
    31  H    0.000000   0.000000  -0.019779  -0.002101   0.382775   0.000000
             13         14         15         16         17         18
     1  C    0.382009   0.382475  -0.024914   0.000040  -0.000017   0.000008
     2  C   -0.020783  -0.020229   0.383500  -0.001900   0.001284  -0.002446
     3  C   -0.000008   0.000016   0.001193   0.376557   0.001118  -0.000022
     4  C    0.000014  -0.000018  -0.000341   0.000480   0.384043   0.381302
     5  C    0.000007  -0.000001   0.000012  -0.024504  -0.020973  -0.021412
     6  C   -0.002302   0.001301  -0.023657  -0.000163  -0.021718  -0.023642
     7  C   -0.001957  -0.002354  -0.024727  -0.029090   0.000045  -0.000056
     8  O   -0.000002   0.000000  -0.000005  -0.020646  -0.000003  -0.000002
     9  C    0.000000   0.000000   0.000000   0.001030  -0.000121  -0.003357
    10  C    0.000000   0.000000   0.000001  -0.000011   0.000035  -0.000586
    11  C    0.000000   0.000000   0.000000  -0.000012  -0.000546  -0.000173
    12  H   -0.021645  -0.021707  -0.002220  -0.000009  -0.000001   0.000000
    13  H    0.633281  -0.021926   0.001941   0.000035  -0.000001  -0.000001
    14  H   -0.021926   0.632241  -0.002591   0.000008   0.000000   0.000000
    15  H    0.001941  -0.002591   0.652105  -0.000007  -0.000017   0.000330
    16  H    0.000035   0.000008  -0.000007   0.672511  -0.000026  -0.000024
    17  H   -0.000001   0.000000  -0.000017  -0.000026   0.638834  -0.023839
    18  H   -0.000001   0.000000   0.000330  -0.000024  -0.023839   0.643559
    19  H    0.000000   0.000000   0.000002  -0.007296  -0.005550   0.001919
    20  H    0.000336   0.000059   0.001852  -0.000553  -0.002139   0.002030
    21  H    0.000012  -0.000018  -0.005066   0.000008  -0.002517  -0.002163
    22  H    0.000034   0.000045   0.000664  -0.002048   0.000001   0.000000
    23  H    0.000002   0.000052  -0.006710   0.002048   0.000001  -0.000339
    24  H    0.000000   0.000000  -0.000001  -0.003269   0.000001   0.000000
    25  H    0.000000   0.000000   0.000000   0.000028  -0.000013   0.000021
    26  H    0.000000   0.000000   0.000001  -0.000002   0.000021  -0.000471
    27  H    0.000000   0.000000   0.000001   0.000007  -0.000001   0.000032
    28  H    0.000000   0.000000   0.000000   0.000001  -0.000001  -0.000018
    29  H    0.000000   0.000000   0.000000   0.000000  -0.000710  -0.000085
    30  H    0.000000   0.000000   0.000000  -0.000001  -0.000032   0.000023
    31  H    0.000000   0.000000   0.000000   0.000000   0.000015  -0.000008
             19         20         21         22         23         24
     1  C    0.000001  -0.004671  -0.000307  -0.005605   0.001317   0.000001
     2  C    0.000021  -0.021813  -0.021482  -0.020024  -0.021465   0.000006
     3  C   -0.026185  -0.000249   0.000066  -0.021303  -0.022979  -0.040987
     4  C   -0.025047  -0.023419  -0.021036   0.000057   0.000022  -0.000031
     5  C    0.380823  -0.002324   0.001209   0.001100  -0.002280   0.002335
     6  C   -0.000392   0.381532   0.383379   0.001058   0.000433  -0.000001
     7  C    0.001332  -0.000076   0.001156   0.381062   0.381331  -0.003446
     8  O    0.000316   0.000001   0.000000  -0.001368  -0.000430   0.258655
     9  C   -0.024675   0.000005  -0.000013  -0.000012   0.000104   0.000087
    10  C    0.001201  -0.000001   0.000000   0.000005  -0.000662   0.000014
    11  C   -0.002635   0.000000   0.000000   0.000000  -0.000003   0.000000
    12  H    0.000000  -0.000092   0.000168   0.000083  -0.000038   0.000000
    13  H    0.000000   0.000336   0.000012   0.000034   0.000002   0.000000
    14  H    0.000000   0.000059  -0.000018   0.000045   0.000052   0.000000
    15  H    0.000002   0.001852  -0.005066   0.000664  -0.006710  -0.000001
    16  H   -0.007296  -0.000553   0.000008  -0.002048   0.002048  -0.003269
    17  H   -0.005550  -0.002139  -0.002517   0.000001   0.000001   0.000001
    18  H    0.001919   0.002030  -0.002163   0.000000  -0.000339   0.000000
    19  H    0.662083   0.000377  -0.000017  -0.000036   0.000006  -0.000061
    20  H    0.000377   0.645467  -0.023862  -0.000014  -0.000024   0.000000
    21  H   -0.000017  -0.023862   0.638866  -0.000025  -0.000019   0.000000
    22  H   -0.000036  -0.000014  -0.000025   0.645735  -0.025235   0.000592
    23  H    0.000006  -0.000024  -0.000019  -0.025235   0.640263   0.000007
    24  H   -0.000061   0.000000   0.000000   0.000592   0.000007   0.607754
    25  H   -0.002945  -0.000001   0.000000  -0.000001   0.000007  -0.000014
    26  H   -0.000005   0.000000   0.000001   0.000001  -0.000081   0.000000
    27  H    0.000013   0.000000   0.000000   0.000019  -0.000432  -0.000030
    28  H   -0.000032   0.000000   0.000000   0.000000   0.000011   0.000000
    29  H    0.000017   0.000000   0.000001   0.000000   0.000000   0.000000
    30  H    0.000274   0.000000   0.000000   0.000000   0.000000   0.000000
    31  H    0.000023   0.000000   0.000000   0.000000   0.000000   0.000000
             25         26         27         28         29         30
     1  C    0.000000   0.000000   0.000000   0.000000   0.000000   0.000000
     2  C   -0.000001   0.000002   0.000003   0.000000   0.000000   0.000000
     3  C   -0.001776   0.000019  -0.000098   0.000000  -0.000002   0.000014
     4  C    0.001088  -0.000637   0.000040   0.000015  -0.000605  -0.000089
     5  C   -0.022614  -0.001505  -0.001507   0.001113  -0.001335  -0.002420
     6  C   -0.000013  -0.000007  -0.000001   0.000000   0.000006  -0.000002
     7  C    0.000012  -0.000051  -0.000678   0.000008   0.000000   0.000000
     8  O    0.000200   0.000008   0.000352   0.000007   0.000000   0.000000
     9  C    0.382553  -0.020477  -0.019410  -0.019948  -0.020342  -0.020180
    10  C   -0.024178   0.381745   0.382947   0.381972  -0.002472   0.001326
    11  C   -0.024844  -0.002063   0.001326  -0.002744   0.382206   0.381890
    12  H    0.000000   0.000000   0.000000   0.000000   0.000000   0.000000
    13  H    0.000000   0.000000   0.000000   0.000000   0.000000   0.000000
    14  H    0.000000   0.000000   0.000000   0.000000   0.000000   0.000000
    15  H    0.000000   0.000001   0.000001   0.000000   0.000000   0.000000
    16  H    0.000028  -0.000002   0.000007   0.000001   0.000000  -0.000001
    17  H   -0.000013   0.000021  -0.000001  -0.000001  -0.000710  -0.000032
    18  H    0.000021  -0.000471   0.000032  -0.000018  -0.000085   0.000023
    19  H   -0.002945  -0.000005   0.000013  -0.000032   0.000017   0.000274
    20  H   -0.000001   0.000000   0.000000   0.000000   0.000000   0.000000
    21  H    0.000000   0.000001   0.000000   0.000000   0.000001   0.000000
    22  H   -0.000001   0.000001   0.000019   0.000000   0.000000   0.000000
    23  H    0.000007  -0.000081  -0.000432   0.000011   0.000000   0.000000
    24  H   -0.000014   0.000000  -0.000030   0.000000   0.000000   0.000000
    25  H    0.637844   0.001892  -0.002389  -0.002361   0.001923  -0.001916
    26  H    0.001892   0.637190  -0.021948  -0.022222   0.000368   0.000006
    27  H   -0.002389  -0.021948   0.621849  -0.021877   0.000014  -0.000037
    28  H   -0.002361  -0.022222  -0.021877   0.633349  -0.000027   0.000037
    29  H    0.001923   0.000368   0.000014  -0.000027   0.632852  -0.021733
    30  H   -0.001916   0.000006  -0.000037   0.000037  -0.021733   0.633173
    31  H   -0.003025  -0.000005   0.000023   0.000085  -0.022166  -0.021706
             31
     1  C    0.000000
     2  C    0.000000
     3  C   -0.000012
     4  C    0.000022
     5  C    0.001149
     6  C    0.000000
     7  C    0.000000
     8  O    0.000000
     9  C   -0.019779
    10  C   -0.002101
    11  C    0.382775
    12  H    0.000000
    13  H    0.000000
    14  H    0.000000
    15  H    0.000000
    16  H    0.000000
    17  H    0.000015
    18  H   -0.000008
    19  H    0.000023
    20  H    0.000000
    21  H    0.000000
    22  H    0.000000
    23  H    0.000000
    24  H    0.000000
    25  H   -0.003025
    26  H   -0.000005
    27  H    0.000023
    28  H    0.000085
    29  H   -0.022166
    30  H   -0.021706
    31  H    0.630824
 Mulliken atomic charges:
              1
     1  C   -0.171255
     2  C   -0.024206
     3  C    0.077997
     4  C   -0.102838
     5  C   -0.032520
     6  C   -0.100541
     7  C   -0.117632
     8  O   -0.313610
     9  C   -0.016572
    10  C   -0.176142
    11  C   -0.173260
    12  H    0.054366
    13  H    0.050954
    14  H    0.052646
    15  H    0.048653
    16  H    0.036809
    17  H    0.052828
    18  H    0.049420
    19  H    0.046466
    20  H    0.047577
    21  H    0.051659
    22  H    0.045216
    23  H    0.055092
    24  H    0.178389
    25  H    0.060521
    26  H    0.048220
    27  H    0.061780
    28  H    0.052631
    29  H    0.052092
    30  H    0.051371
    31  H    0.053887
 Sum of Mulliken atomic charges =   0.00000
 Mulliken charges with hydrogens summed into heavy atoms:
              1
     1  C   -0.013289
     2  C    0.024447
     3  C    0.114806
     4  C   -0.000590
     5  C    0.013947
     6  C   -0.001305
     7  C   -0.017324
     8  O   -0.135221
     9  C    0.043949
    10  C   -0.013511
    11  C   -0.015909
 Sum of Mulliken charges with hydrogens summed into heavy atoms =   0.00000
 Electronic spatial extent (au):  <R**2>=           2078.5846
 Charge=              0.0000 electrons
 Dipole moment (field-independent basis, Debye):
    X=              1.3118    Y=             -0.2316    Z=              0.0385  Tot=              1.3327
 Quadrupole moment (field-independent basis, Debye-Ang):
   XX=            -68.4587   YY=            -66.7403   ZZ=            -67.4139
   XY=              3.0806   XZ=             -0.6228   YZ=             -0.0234
 Traceless Quadrupole moment (field-independent basis, Debye-Ang):
   XX=             -0.9211   YY=              0.7973   ZZ=              0.1238
   XY=              3.0806   XZ=             -0.6228   YZ=             -0.0234
 Octapole moment (field-independent basis, Debye-Ang**2):
  XXX=             -6.0748  YYY=             20.3830  ZZZ=             -4.7220  XYY=              9.8260
  XXY=              5.4454  XXZ=             -0.2336  XZZ=              0.7572  YZZ=              3.1035
  YYZ=             -1.0757  XYZ=             -2.2425
 Hexadecapole moment (field-independent basis, Debye-Ang**3):
 XXXX=          -1764.2988 YYYY=           -566.5189 ZZZZ=           -284.3015 XXXY=            -14.6677
 XXXZ=              2.2276 YYYX=             15.9973 YYYZ=            -13.9911 ZZZX=              2.8279
 ZZZY=             -8.3422 XXYY=           -393.9252 XXZZ=           -340.9540 YYZZ=           -148.3850
 XXYZ=             -2.8378 YYXZ=             -3.4749 ZZXY=              1.7836
 N-N= 6.964564890669D+02 E-N=-2.465011269964D+03  KE= 4.555342509884D+02
 ******************************Gaussian NBO Version 3.1******************************
             N A T U R A L   A T O M I C   O R B I T A L   A N D
          N A T U R A L   B O N D   O R B I T A L   A N A L Y S I S
 ******************************Gaussian NBO Version 3.1******************************
       /RESON  / : Allow strongly delocalized NBO set
       /NLMO   / : Form Natural Localized Molecular Orbitals
       /NMR /    : Analyze NMR Sheilding Tensor 

 Analyzing the SCF density

 Job title: comment                                                         

 Storage needed:     19864 in NPA,     23691 in NBO,     45933 in NLMO (  33549317 available)


 NATURAL POPULATIONS:  Natural atomic orbital occupancies 
                                                          
   NAO  Atom  No  lang   Type(AO)    Occupancy      Energy
 ----------------------------------------------------------
     1    C    1  S      Cor( 1S)     1.99998     -10.96703
     2    C    1  S      Val( 2S)     1.08076      -0.18444
     3    C    1  px     Val( 2p)     0.99757       0.08461
     4    C    1  py     Val( 2p)     1.02693       0.08192
     5    C    1  pz     Val( 2p)     1.02101       0.08370

     6    C    2  S      Cor( 1S)     1.99997     -10.99068
     7    C    2  S      Val( 2S)     1.08146      -0.19490
     8    C    2  px     Val( 2p)     0.95379       0.10835
     9    C    2  py     Val( 2p)     0.95631       0.10936
    10    C    2  pz     Val( 2p)     0.99347       0.10012

    11    C    3  S      Cor( 1S)     1.99989     -11.03434
    12    C    3  S      Val( 2S)     1.08737      -0.21579
    13    C    3  px     Val( 2p)     0.93307       0.09878
    14    C    3  py     Val( 2p)     0.85668       0.11540
    15    C    3  pz     Val( 2p)     0.97705       0.09145

    16    C    4  S      Cor( 1S)     1.99996     -10.97415
    17    C    4  S      Val( 2S)     1.08430      -0.18832
    18    C    4  px     Val( 2p)     0.97609       0.09915
    19    C    4  py     Val( 2p)     0.99245       0.09391
    20    C    4  pz     Val( 2p)     1.01299       0.09471

    21    C    5  S      Cor( 1S)     1.99995     -10.98758
    22    C    5  S      Val( 2S)     1.10369      -0.20983
    23    C    5  px     Val( 2p)     0.95597       0.11220
    24    C    5  py     Val( 2p)     0.95082       0.11154
    25    C    5  pz     Val( 2p)     0.99914       0.09656

    26    C    6  S      Cor( 1S)     1.99996     -10.97563
    27    C    6  S      Val( 2S)     1.08366      -0.18947
    28    C    6  px     Val( 2p)     0.97683       0.09742
    29    C    6  py     Val( 2p)     0.99634       0.09216
    30    C    6  pz     Val( 2p)     1.00608       0.09406

    31    C    7  S      Cor( 1S)     1.99996     -10.97350
    32    C    7  S      Val( 2S)     1.09380      -0.19835
    33    C    7  px     Val( 2p)     1.00272       0.08688
    34    C    7  py     Val( 2p)     0.98980       0.09360
    35    C    7  pz     Val( 2p)     1.00874       0.08561

    36    O    8  S      Cor( 1S)     1.99999     -20.14220
    37    O    8  S      Val( 2S)     1.74642      -0.99767
    38    O    8  px     Val( 2p)     1.49717      -0.19082
    39    O    8  py     Val( 2p)     1.11656      -0.01384
    40    O    8  pz     Val( 2p)     1.97436      -0.37104

    41    C    9  S      Cor( 1S)     1.99996     -10.98435
    42    C    9  S      Val( 2S)     1.08414      -0.18792
    43    C    9  px     Val( 2p)     0.94976       0.11895
    44    C    9  py     Val( 2p)     0.97902       0.11335
    45    C    9  pz     Val( 2p)     0.96363       0.11942

    46    C   10  S      Cor( 1S)     1.99997     -10.95474
    47    C   10  S      Val( 2S)     1.07956      -0.17141
    48    C   10  px     Val( 2p)     1.03170       0.09047
    49    C   10  py     Val( 2p)     1.02706       0.09460
    50    C   10  pz     Val( 2p)     0.99414       0.09896

    51    C   11  S      Cor( 1S)     1.99997     -10.95910
    52    C   11  S      Val( 2S)     1.08130      -0.17731
    53    C   11  px     Val( 2p)     1.01457       0.08930
    54    C   11  py     Val( 2p)     1.00778       0.09243
    55    C   11  pz     Val( 2p)     1.02519       0.09101

    56    H   12  S      Val( 1S)     0.96306       0.07266

    57    H   13  S      Val( 1S)     0.96627       0.06982

    58    H   14  S      Val( 1S)     0.96470       0.07181

    59    H   15  S      Val( 1S)     0.97582       0.06570

    60    H   16  S      Val( 1S)     0.99893       0.04771

    61    H   17  S      Val( 1S)     0.96803       0.07280

    62    H   18  S      Val( 1S)     0.97194       0.07362

    63    H   19  S      Val( 1S)     0.97944       0.06841

    64    H   20  S      Val( 1S)     0.97321       0.06764

    65    H   21  S      Val( 1S)     0.96899       0.06967

    66    H   22  S      Val( 1S)     0.97419       0.06115

    67    H   23  S      Val( 1S)     0.96583       0.07473

    68    H   24  S      Val( 1S)     0.80896       0.07449

    69    H   25  S      Val( 1S)     0.96602       0.08588

    70    H   26  S      Val( 1S)     0.96868       0.08082

    71    H   27  S      Val( 1S)     0.95645       0.09359

    72    H   28  S      Val( 1S)     0.96405       0.08237

    73    H   29  S      Val( 1S)     0.96544       0.07919

    74    H   30  S      Val( 1S)     0.96591       0.07852

    75    H   31  S      Val( 1S)     0.96335       0.07955


 Summary of Natural Population Analysis:                  
                                                          
                                       Natural Population 
                Natural  -----------------------------------------------
    Atom  No    Charge         Core      Valence    Rydberg      Total
 -----------------------------------------------------------------------
      C    1   -0.12624      1.99998     4.12626    0.00000     6.12624
      C    2    0.01501      1.99997     3.98502    0.00000     5.98499
      C    3    0.14594      1.99989     3.85417    0.00000     5.85406
      C    4   -0.06578      1.99996     4.06583    0.00000     6.06578
      C    5   -0.00956      1.99995     4.00962    0.00000     6.00956
      C    6   -0.06287      1.99996     4.06291    0.00000     6.06287
      C    7   -0.09501      1.99996     4.09505    0.00000     6.09501
      O    8   -0.33450      1.99999     6.33451    0.00000     8.33450
      C    9    0.02350      1.99996     3.97654    0.00000     5.97650
      C   10   -0.13242      1.99997     4.13245    0.00000     6.13242
      C   11   -0.12881      1.99997     4.12884    0.00000     6.12881
      H   12    0.03694      0.00000     0.96306    0.00000     0.96306
      H   13    0.03373      0.00000     0.96627    0.00000     0.96627
      H   14    0.03530      0.00000     0.96470    0.00000     0.96470
      H   15    0.02418      0.00000     0.97582    0.00000     0.97582
      H   16    0.00107      0.00000     0.99893    0.00000     0.99893
      H   17    0.03197      0.00000     0.96803    0.00000     0.96803
      H   18    0.02806      0.00000     0.97194    0.00000     0.97194
      H   19    0.02056      0.00000     0.97944    0.00000     0.97944
      H   20    0.02679      0.00000     0.97321    0.00000     0.97321
      H   21    0.03101      0.00000     0.96899    0.00000     0.96899
      H   22    0.02581      0.00000     0.97419    0.00000     0.97419
      H   23    0.03417      0.00000     0.96583    0.00000     0.96583
      H   24    0.19104      0.00000     0.80896    0.00000     0.80896
      H   25    0.03398      0.00000     0.96602    0.00000     0.96602
      H   26    0.03132      0.00000     0.96868    0.00000     0.96868
      H   27    0.04355      0.00000     0.95645    0.00000     0.95645
      H   28    0.03595      0.00000     0.96405    0.00000     0.96405
      H   29    0.03456      0.00000     0.96544    0.00000     0.96544
      H   30    0.03409      0.00000     0.96591    0.00000     0.96591
      H   31    0.03665      0.00000     0.96335    0.00000     0.96335
 =======================================================================
   * Total *    0.00000     21.99954    66.00046    0.00000    88.00000

                                 Natural Population      
 --------------------------------------------------------
   Core                      21.99954 ( 99.9979% of  22)
   Valence                   66.00046 (100.0007% of  66)
   Natural Minimal Basis     88.00000 (100.0000% of  88)
   Natural Rydberg Basis      0.00000 (  0.0000% of  88)
 --------------------------------------------------------

    Atom  No          Natural Electron Configuration
 ----------------------------------------------------------------------------
      C    1      [core]2S( 1.08)2p( 3.05)
      C    2      [core]2S( 1.08)2p( 2.90)
      C    3      [core]2S( 1.09)2p( 2.77)
      C    4      [core]2S( 1.08)2p( 2.98)
      C    5      [core]2S( 1.10)2p( 2.91)
      C    6      [core]2S( 1.08)2p( 2.98)
      C    7      [core]2S( 1.09)2p( 3.00)
      O    8      [core]2S( 1.75)2p( 4.59)
      C    9      [core]2S( 1.08)2p( 2.89)
      C   10      [core]2S( 1.08)2p( 3.05)
      C   11      [core]2S( 1.08)2p( 3.05)
      H   12            1S( 0.96)
      H   13            1S( 0.97)
      H   14            1S( 0.96)
      H   15            1S( 0.98)
      H   16            1S( 1.00)
      H   17            1S( 0.97)
      H   18            1S( 0.97)
      H   19            1S( 0.98)
      H   20            1S( 0.97)
      H   21            1S( 0.97)
      H   22            1S( 0.97)
      H   23            1S( 0.97)
      H   24            1S( 0.81)
      H   25            1S( 0.97)
      H   26            1S( 0.97)
      H   27            1S( 0.96)
      H   28            1S( 0.96)
      H   29            1S( 0.97)
      H   30            1S( 0.97)
      H   31            1S( 0.96)


 NATURAL BOND ORBITAL ANALYSIS:

                       Occupancies       Lewis Structure    Low   High
           Occ.    -------------------  -----------------   occ   occ
  Cycle   Thresh.   Lewis   Non-Lewis     CR  BD  3C  LP    (L)   (NL)   Dev
 =============================================================================
   1(1)    1.90    87.64364   0.35636     11  31   0   2     0      0    0.02
 -----------------------------------------------------------------------------

 Structure accepted: No low occupancy Lewis orbitals

 --------------------------------------------------------
   Core                     21.99953 ( 99.998% of  22)
   Valence Lewis            65.64410 ( 99.461% of  66)
  ==================       ============================
   Total Lewis              87.64364 ( 99.595% of  88)
  -----------------------------------------------------
   Valence non-Lewis         0.35636 (  0.405% of  88)
   Rydberg non-Lewis         0.00000 (  0.000% of  88)
  ==================       ============================
   Total non-Lewis           0.35636 (  0.405% of  88)
 --------------------------------------------------------


       (Occupancy)   Bond orbital/ Coefficients/ Hybrids
 ---------------------------------------------------------------------------------
     1. (1.99037) BD ( 1) C   1 - C   2  
                ( 50.95%)   0.7138* C   1 s( 25.73%)p 2.89( 74.27%)
                                            0.0001  0.5073 -0.7857 -0.1437  0.3235
                ( 49.05%)   0.7003* C   2 s( 24.87%)p 3.02( 75.13%)
                                            0.0000  0.4987  0.7774  0.1568 -0.3499
     2. (1.99508) BD ( 1) C   1 - H  12  
                ( 51.86%)   0.7202* C   1 s( 24.77%)p 3.04( 75.23%)
                                            0.0000  0.4977  0.4626 -0.7335  0.0174
                ( 48.14%)   0.6938* H  12 s(100.00%)
                                            1.0000
     3. (1.99520) BD ( 1) C   1 - H  13  
                ( 51.72%)   0.7192* C   1 s( 24.81%)p 3.03( 75.19%)
                                            0.0000  0.4981 -0.0663  0.2766 -0.8191
                ( 48.28%)   0.6948* H  13 s(100.00%)
                                            1.0000
     4. (1.99495) BD ( 1) C   1 - H  14  
                ( 51.78%)   0.7196* C   1 s( 24.69%)p 3.05( 75.31%)
                                            0.0000  0.4969  0.4053  0.6040  0.4733
                ( 48.22%)   0.6944* H  14 s(100.00%)
                                            1.0000
     5. (1.98509) BD ( 1) C   2 - C   6  
                ( 49.78%)   0.7055* C   2 s( 25.34%)p 2.95( 74.66%)
                                            0.0000  0.5033 -0.3941 -0.6301 -0.4408
                ( 50.22%)   0.7087* C   6 s( 25.24%)p 2.96( 74.76%)
                                            0.0001  0.5024  0.3705  0.6578  0.4215
     6. (1.98387) BD ( 1) C   2 - C   7  
                ( 49.34%)   0.7024* C   2 s( 25.26%)p 2.96( 74.74%)
                                            0.0000  0.5026 -0.4791  0.7192 -0.0257
                ( 50.66%)   0.7117* C   7 s( 25.65%)p 2.90( 74.35%)
                                            0.0001  0.5065  0.4755 -0.7186 -0.0299
     7. (1.98632) BD ( 1) C   2 - H  15  
                ( 51.13%)   0.7151* C   2 s( 24.53%)p 3.08( 75.47%)
                                            0.0000  0.4953  0.1041 -0.2474  0.8262
                ( 48.87%)   0.6991* H  15 s(100.00%)
                                            1.0000
     8. (1.98146) BD ( 1) C   3 - C   5  
                ( 50.77%)   0.7125* C   3 s( 26.80%)p 2.73( 73.20%)
                                            0.0000  0.5177 -0.5805 -0.6282  0.0203
                ( 49.23%)   0.7016* C   5 s( 25.27%)p 2.96( 74.73%)
                                            0.0001  0.5027  0.5329  0.6760  0.0790
     9. (1.98914) BD ( 1) C   3 - C   7  
                ( 49.21%)   0.7015* C   3 s( 25.57%)p 2.91( 74.43%)
                                            0.0000  0.5056  0.5229 -0.0445  0.6848
                ( 50.79%)   0.7127* C   7 s( 25.22%)p 2.96( 74.78%)
                                            0.0000  0.5022 -0.5338  0.0290 -0.6797
    10. (1.98821) BD ( 1) C   3 - O   8  
                ( 41.04%)   0.6406* C   3 s( 22.70%)p 3.41( 77.30%)
                                            0.0000  0.4764 -0.4139  0.7756  0.0146
                ( 58.96%)   0.7678* O   8 s( 16.75%)p 4.97( 83.25%)
                                            0.0000  0.4093  0.4816 -0.7748  0.0142
    11. (1.98937) BD ( 1) C   3 - H  16  
                ( 50.35%)   0.7096* C   3 s( 24.93%)p 3.01( 75.07%)
                                            0.0000  0.4993  0.4672 -0.0437 -0.7283
                ( 49.65%)   0.7046* H  16 s(100.00%)
                                            1.0000
    12. (1.98428) BD ( 1) C   4 - C   5  
                ( 50.38%)   0.7098* C   4 s( 25.27%)p 2.96( 74.73%)
                                            0.0001  0.5027 -0.3302  0.7241 -0.3377
                ( 49.62%)   0.7044* C   5 s( 25.54%)p 2.92( 74.46%)
                                            0.0000  0.5054  0.3421 -0.6908  0.3877
    13. (1.98920) BD ( 1) C   4 - C   6  
                ( 49.94%)   0.7067* C   4 s( 25.11%)p 2.98( 74.89%)
                                            0.0000  0.5011  0.8584 -0.0074 -0.1095
                ( 50.06%)   0.7075* C   6 s( 25.14%)p 2.98( 74.86%)
                                            0.0000  0.5014 -0.8581  0.0325  0.1059
    14. (1.99014) BD ( 1) C   4 - H  17  
                ( 51.56%)   0.7181* C   4 s( 24.94%)p 3.01( 75.06%)
                                            0.0000  0.4994 -0.3477 -0.6889 -0.3938
                ( 48.44%)   0.6960* H  17 s(100.00%)
                                            1.0000
    15. (1.99018) BD ( 1) C   4 - H  18  
                ( 51.45%)   0.7173* C   4 s( 24.68%)p 3.05( 75.32%)
                                            0.0000  0.4968 -0.1821 -0.0326  0.8479
                ( 48.55%)   0.6968* H  18 s(100.00%)
                                            1.0000
    16. (1.97899) BD ( 1) C   5 - C   9  
                ( 50.54%)   0.7109* C   5 s( 25.80%)p 2.88( 74.20%)
                                            0.0001  0.5079 -0.7666  0.1862  0.3460
                ( 49.46%)   0.7032* C   9 s( 25.29%)p 2.95( 74.71%)
                                            0.0001  0.5029  0.8065 -0.1854 -0.2495
    17. (1.98538) BD ( 1) C   5 - H  19  
                ( 50.91%)   0.7135* C   5 s( 23.39%)p 3.28( 76.61%)
                                            0.0000  0.4836 -0.1064 -0.1764 -0.8507
                ( 49.09%)   0.7006* H  19 s(100.00%)
                                            1.0000
    18. (1.99096) BD ( 1) C   6 - H  20  
                ( 51.38%)   0.7168* C   6 s( 24.69%)p 3.05( 75.31%)
                                            0.0000  0.4969  0.1882  0.0561 -0.8453
                ( 48.62%)   0.6973* H  20 s(100.00%)
                                            1.0000
    19. (1.99018) BD ( 1) C   6 - H  21  
                ( 51.51%)   0.7177* C   6 s( 24.93%)p 3.01( 75.07%)
                                            0.0000  0.4993  0.3017 -0.7504  0.3109
                ( 48.49%)   0.6963* H  21 s(100.00%)
                                            1.0000
    20. (1.98873) BD ( 1) C   7 - H  22  
                ( 51.27%)   0.7160* C   7 s( 24.99%)p 3.00( 75.01%)
                                            0.0000  0.4999  0.5171  0.6948 -0.0071
                ( 48.73%)   0.6981* H  22 s(100.00%)
                                            1.0000
    21. (1.99039) BD ( 1) C   7 - H  23  
                ( 51.71%)   0.7191* C   7 s( 24.14%)p 3.14( 75.86%)
                                            0.0000  0.4913 -0.4707  0.0043  0.7328
                ( 48.29%)   0.6949* H  23 s(100.00%)
                                            1.0000
    22. (1.98846) BD ( 1) O   8 - H  24  
                ( 59.54%)   0.7716* O   8 s( 16.87%)p 4.93( 83.13%)
                                            0.0000  0.4107  0.6612  0.6277 -0.0107
                ( 40.46%)   0.6361* H  24 s(100.00%)
                                            1.0000
    23. (1.99021) BD ( 1) C   9 - C  10  
                ( 49.01%)   0.7001* C   9 s( 25.31%)p 2.95( 74.69%)
                                            0.0000  0.5031 -0.0048  0.2187  0.8361
                ( 50.99%)   0.7141* C  10 s( 25.94%)p 2.86( 74.06%)
                                            0.0001  0.5093  0.0495 -0.2417 -0.8245
    24. (1.98850) BD ( 1) C   9 - C  11  
                ( 48.89%)   0.6992* C   9 s( 24.92%)p 3.01( 75.08%)
                                            0.0000  0.4992 -0.5081 -0.6911 -0.1224
                ( 51.11%)   0.7149* C  11 s( 25.74%)p 2.88( 74.26%)
                                            0.0001  0.5074  0.5438  0.6554  0.1318
    25. (1.98388) BD ( 1) C   9 - H  25  
                ( 51.58%)   0.7182* C   9 s( 24.48%)p 3.08( 75.52%)
                                            0.0000  0.4948 -0.3023  0.6634 -0.4730
                ( 48.42%)   0.6958* H  25 s(100.00%)
                                            1.0000
    26. (1.99457) BD ( 1) C  10 - H  26  
                ( 51.61%)   0.7184* C  10 s( 24.78%)p 3.03( 75.22%)
                                            0.0000  0.4978  0.2925 -0.6363  0.5116
                ( 48.39%)   0.6956* H  26 s(100.00%)
                                            1.0000
    27. (1.99465) BD ( 1) C  10 - H  27  
                ( 52.21%)   0.7226* C  10 s( 24.86%)p 3.02( 75.14%)
                                            0.0000  0.4986  0.4773  0.7123  0.1278
                ( 47.79%)   0.6913* H  27 s(100.00%)
                                            1.0000
    28. (1.99417) BD ( 1) C  10 - H  28  
                ( 51.79%)   0.7196* C  10 s( 24.42%)p 3.10( 75.58%)
                                            0.0000  0.4942 -0.8272  0.1715  0.2053
                ( 48.21%)   0.6944* H  28 s(100.00%)
                                            1.0000
    29. (1.99575) BD ( 1) C  11 - H  29  
                ( 51.79%)   0.7197* C  11 s( 24.84%)p 3.03( 75.16%)
                                            0.0000  0.4984  0.2212 -0.6705  0.5031
                ( 48.21%)   0.6943* H  29 s(100.00%)
                                            1.0000
    30. (1.99513) BD ( 1) C  11 - H  30  
                ( 51.73%)   0.7192* C  11 s( 24.70%)p 3.05( 75.30%)
                                            0.0000  0.4970  0.0322 -0.2442 -0.8321
                ( 48.27%)   0.6948* H  30 s(100.00%)
                                            1.0000
    31. (1.99464) BD ( 1) C  11 - H  31  
                ( 51.83%)   0.7199* C  11 s( 24.71%)p 3.05( 75.29%)
                                            0.0000  0.4971 -0.8089  0.2475  0.1930
                ( 48.17%)   0.6941* H  31 s(100.00%)
                                            1.0000
    32. (1.99997) CR ( 1) C   1           s(100.00%)
                                            1.0000  0.0000  0.0001  0.0000  0.0000
    33. (1.99997) CR ( 1) C   2           s(100.00%)
                                            1.0000  0.0000  0.0000  0.0000  0.0000
    34. (1.99989) CR ( 1) C   3           s(100.00%)
                                            1.0000  0.0000  0.0000  0.0000  0.0000
    35. (1.99996) CR ( 1) C   4           s(100.00%)
                                            1.0000  0.0000  0.0000 -0.0001  0.0000
    36. (1.99995) CR ( 1) C   5           s(100.00%)
                                            1.0000 -0.0001  0.0000  0.0000 -0.0001
    37. (1.99996) CR ( 1) C   6           s(100.00%)
                                            1.0000  0.0000  0.0000 -0.0001  0.0000
    38. (1.99996) CR ( 1) C   7           s(100.00%)
                                            1.0000  0.0000  0.0000  0.0000  0.0000
    39. (1.99999) CR ( 1) O   8           s(100.00%)
                                            1.0000  0.0000  0.0000  0.0000  0.0000
    40. (1.99996) CR ( 1) C   9           s(100.00%)
                                            1.0000  0.0000 -0.0001  0.0000  0.0000
    41. (1.99997) CR ( 1) C  10           s(100.00%)
                                            1.0000  0.0000  0.0000  0.0000  0.0001
    42. (1.99997) CR ( 1) C  11           s(100.00%)
                                            1.0000  0.0000 -0.0001 -0.0001  0.0000
    43. (1.99206) LP ( 1) O   8           s( 66.24%)p 0.51( 33.76%)
                                            0.0000  0.8139 -0.5747  0.0735  0.0446
    44. (1.97461) LP ( 2) O   8           s(  0.14%)p99.99( 99.86%)
                                            0.0000  0.0378 -0.0259 -0.0145 -0.9988
    45. (0.00965) BD*( 1) C   1 - C   2  
                ( 49.05%)   0.7003* C   1 s( 25.73%)p 2.89( 74.27%)
                                           -0.0001 -0.5073  0.7857  0.1437 -0.3235
                ( 50.95%)  -0.7138* C   2 s( 24.87%)p 3.02( 75.13%)
                                            0.0000 -0.4987 -0.7774 -0.1568  0.3499
    46. (0.00514) BD*( 1) C   1 - H  12  
                ( 48.14%)   0.6938* C   1 s( 24.77%)p 3.04( 75.23%)
                                            0.0000 -0.4977 -0.4626  0.7335 -0.0174
                ( 51.86%)  -0.7202* H  12 s(100.00%)
                                           -1.0000
    47. (0.00592) BD*( 1) C   1 - H  13  
                ( 48.28%)   0.6948* C   1 s( 24.81%)p 3.03( 75.19%)
                                            0.0000 -0.4981  0.0663 -0.2766  0.8191
                ( 51.72%)  -0.7192* H  13 s(100.00%)
                                           -1.0000
    48. (0.00515) BD*( 1) C   1 - H  14  
                ( 48.22%)   0.6944* C   1 s( 24.69%)p 3.05( 75.31%)
                                            0.0000 -0.4969 -0.4053 -0.6040 -0.4733
                ( 51.78%)  -0.7196* H  14 s(100.00%)
                                           -1.0000
    49. (0.01609) BD*( 1) C   2 - C   6  
                ( 50.22%)   0.7087* C   2 s( 25.34%)p 2.95( 74.66%)
                                            0.0000  0.5033 -0.3941 -0.6301 -0.4408
                ( 49.78%)  -0.7055* C   6 s( 25.24%)p 2.96( 74.76%)
                                            0.0001  0.5024  0.3705  0.6578  0.4215
    50. (0.01631) BD*( 1) C   2 - C   7  
                ( 50.66%)   0.7117* C   2 s( 25.26%)p 2.96( 74.74%)
                                            0.0000  0.5026 -0.4791  0.7192 -0.0257
                ( 49.34%)  -0.7024* C   7 s( 25.65%)p 2.90( 74.35%)
                                            0.0001  0.5065  0.4755 -0.7186 -0.0299
    51. (0.01003) BD*( 1) C   2 - H  15  
                ( 48.87%)   0.6991* C   2 s( 24.53%)p 3.08( 75.47%)
                                            0.0000 -0.4953 -0.1041  0.2474 -0.8262
                ( 51.13%)  -0.7151* H  15 s(100.00%)
                                           -1.0000
    52. (0.02930) BD*( 1) C   3 - C   5  
                ( 49.23%)   0.7016* C   3 s( 26.80%)p 2.73( 73.20%)
                                            0.0000 -0.5177  0.5805  0.6282 -0.0203
                ( 50.77%)  -0.7125* C   5 s( 25.27%)p 2.96( 74.73%)
                                           -0.0001 -0.5027 -0.5329 -0.6760 -0.0790
    53. (0.02757) BD*( 1) C   3 - C   7  
                ( 50.79%)   0.7127* C   3 s( 25.57%)p 2.91( 74.43%)
                                            0.0000  0.5056  0.5229 -0.0445  0.6848
                ( 49.21%)  -0.7015* C   7 s( 25.22%)p 2.96( 74.78%)
                                            0.0000  0.5022 -0.5338  0.0290 -0.6797
    54. (0.02098) BD*( 1) C   3 - O   8  
                ( 58.96%)   0.7678* C   3 s( 22.70%)p 3.41( 77.30%)
                                            0.0000  0.4764 -0.4139  0.7756  0.0146
                ( 41.04%)  -0.6406* O   8 s( 16.75%)p 4.97( 83.25%)
                                            0.0000  0.4093  0.4816 -0.7748  0.0142
    55. (0.02216) BD*( 1) C   3 - H  16  
                ( 49.65%)   0.7046* C   3 s( 24.93%)p 3.01( 75.07%)
                                            0.0000 -0.4993 -0.4672  0.0437  0.7283
                ( 50.35%)  -0.7096* H  16 s(100.00%)
                                           -1.0000
    56. (0.01648) BD*( 1) C   4 - C   5  
                ( 49.62%)   0.7044* C   4 s( 25.27%)p 2.96( 74.73%)
                                           -0.0001 -0.5027  0.3302 -0.7241  0.3377
                ( 50.38%)  -0.7098* C   5 s( 25.54%)p 2.92( 74.46%)
                                            0.0000 -0.5054 -0.3421  0.6908 -0.3877
    57. (0.01056) BD*( 1) C   4 - C   6  
                ( 50.06%)   0.7075* C   4 s( 25.11%)p 2.98( 74.89%)
                                            0.0000  0.5011  0.8584 -0.0074 -0.1095
                ( 49.94%)  -0.7067* C   6 s( 25.14%)p 2.98( 74.86%)
                                            0.0000  0.5014 -0.8581  0.0325  0.1059
    58. (0.00776) BD*( 1) C   4 - H  17  
                ( 48.44%)   0.6960* C   4 s( 24.94%)p 3.01( 75.06%)
                                            0.0000 -0.4994  0.3477  0.6889  0.3938
                ( 51.56%)  -0.7181* H  17 s(100.00%)
                                           -1.0000
    59. (0.01109) BD*( 1) C   4 - H  18  
                ( 48.55%)   0.6968* C   4 s( 24.68%)p 3.05( 75.32%)
                                            0.0000 -0.4968  0.1821  0.0326 -0.8479
                ( 51.45%)  -0.7173* H  18 s(100.00%)
                                           -1.0000
    60. (0.02184) BD*( 1) C   5 - C   9  
                ( 49.46%)   0.7032* C   5 s( 25.80%)p 2.88( 74.20%)
                                           -0.0001 -0.5079  0.7666 -0.1862 -0.3460
                ( 50.54%)  -0.7109* C   9 s( 25.29%)p 2.95( 74.71%)
                                           -0.0001 -0.5029 -0.8065  0.1854  0.2495
    61. (0.00944) BD*( 1) C   5 - H  19  
                ( 49.09%)   0.7006* C   5 s( 23.39%)p 3.28( 76.61%)
                                            0.0000 -0.4836  0.1064  0.1764  0.8507
                ( 50.91%)  -0.7135* H  19 s(100.00%)
                                           -1.0000
    62. (0.01025) BD*( 1) C   6 - H  20  
                ( 48.62%)   0.6973* C   6 s( 24.69%)p 3.05( 75.31%)
                                            0.0000 -0.4969 -0.1882 -0.0561  0.8453
                ( 51.38%)  -0.7168* H  20 s(100.00%)
                                           -1.0000
    63. (0.00767) BD*( 1) C   6 - H  21  
                ( 48.49%)   0.6963* C   6 s( 24.93%)p 3.01( 75.07%)
                                            0.0000 -0.4993 -0.3017  0.7504 -0.3109
                ( 51.51%)  -0.7177* H  21 s(100.00%)
                                           -1.0000
    64. (0.00990) BD*( 1) C   7 - H  22  
                ( 48.73%)   0.6981* C   7 s( 24.99%)p 3.00( 75.01%)
                                            0.0000 -0.4999 -0.5171 -0.6948  0.0071
                ( 51.27%)  -0.7160* H  22 s(100.00%)
                                           -1.0000
    65. (0.00909) BD*( 1) C   7 - H  23  
                ( 48.29%)   0.6949* C   7 s( 24.14%)p 3.14( 75.86%)
                                            0.0000 -0.4913  0.4707 -0.0043 -0.7328
                ( 51.71%)  -0.7191* H  23 s(100.00%)
                                           -1.0000
    66. (0.00752) BD*( 1) O   8 - H  24  
                ( 40.46%)   0.6361* O   8 s( 16.87%)p 4.93( 83.13%)
                                            0.0000 -0.4107 -0.6612 -0.6277  0.0107
                ( 59.54%)  -0.7716* H  24 s(100.00%)
                                           -1.0000
    67. (0.01101) BD*( 1) C   9 - C  10  
                ( 50.99%)   0.7141* C   9 s( 25.31%)p 2.95( 74.69%)
                                            0.0000  0.5031 -0.0048  0.2187  0.8361
                ( 49.01%)  -0.7001* C  10 s( 25.94%)p 2.86( 74.06%)
                                            0.0001  0.5093  0.0495 -0.2417 -0.8245
    68. (0.01016) BD*( 1) C   9 - C  11  
                ( 51.11%)   0.7149* C   9 s( 24.92%)p 3.01( 75.08%)
                                            0.0000  0.4992 -0.5081 -0.6911 -0.1224
                ( 48.89%)  -0.6992* C  11 s( 25.74%)p 2.88( 74.26%)
                                            0.0001  0.5074  0.5438  0.6554  0.1318
    69. (0.01056) BD*( 1) C   9 - H  25  
                ( 48.42%)   0.6958* C   9 s( 24.48%)p 3.08( 75.52%)
                                            0.0000 -0.4948  0.3023 -0.6634  0.4730
                ( 51.58%)  -0.7182* H  25 s(100.00%)
                                           -1.0000
    70. (0.00684) BD*( 1) C  10 - H  26  
                ( 48.39%)   0.6956* C  10 s( 24.78%)p 3.03( 75.22%)
                                            0.0000 -0.4978 -0.2925  0.6363 -0.5116
                ( 51.61%)  -0.7184* H  26 s(100.00%)
                                           -1.0000
    71. (0.00632) BD*( 1) C  10 - H  27  
                ( 47.79%)   0.6913* C  10 s( 24.86%)p 3.02( 75.14%)
                                            0.0000 -0.4986 -0.4773 -0.7123 -0.1278
                ( 52.21%)  -0.7226* H  27 s(100.00%)
                                           -1.0000
    72. (0.00494) BD*( 1) C  10 - H  28  
                ( 48.21%)   0.6944* C  10 s( 24.42%)p 3.10( 75.58%)
                                            0.0000 -0.4942  0.8272 -0.1715 -0.2053
[...]
   10       0.0745       -0.5599       0.6344        -1.4340       1.5085
   16       5.6485       -8.6731      14.3216        -1.8732       7.5217
   23      -0.0497       -6.9359       6.8862        -7.5764       7.5267
   24      -1.8899       -4.1006       2.2107        -9.3249       7.4350
   25       5.9823       -1.1173       7.0996        -5.1134      11.0957
   26       0.8529       -0.2539       1.1069        -0.1700       1.0229
   27       0.5514       -0.5832       1.1346        -0.4721       1.0234
   28       0.6069       -0.1158       0.7227        -0.4218       1.0287
   29       1.0818       -0.3359       1.4176         0.0605       1.0213
   30       0.7076       -0.6308       1.3383        -0.3312       1.0388
   31       0.6510       -0.3701       1.0211        -0.3771       1.0281
   40     199.9216       -0.0021     199.9237         0.0027     199.9189
 Sum      214.1389      -23.6785     237.8174       -27.0308     241.1697

 Contributions to Isotropic shielding for atom   10 (   223.9828 ppm):
                         Standard Origin              Atomic Origin
 NLMO      Total    Paramagnetic  Diamagnetic   Paramagnetic  Diamagnetic
   10       0.1022       -0.3539       0.4560        -1.0625       1.1646
   23       3.7243       -8.7174      12.4417        -4.2608       7.9851
   24      -0.3409       -0.0017      -0.3392        -1.0184       0.6776
   25       0.3728       -0.1085       0.4813        -0.6481       1.0208
   26       7.0470       -4.4163      11.4633        -3.9952      11.0422
   27       6.7064       -5.7111      12.4175        -4.5441      11.2505
   28       5.9372        3.1740       2.7632        -5.1277      11.0649
   41     200.0738       -0.0020     200.0758         0.0013     200.0725
 Sum      223.6228      -16.1368     239.7596       -20.6554     244.2782

 Contributions to Isotropic shielding for atom   11 (   221.1035 ppm):
                         Standard Origin              Atomic Origin
 NLMO      Total    Paramagnetic  Diamagnetic   Paramagnetic  Diamagnetic
   23      -0.5355        0.0311      -0.5666        -1.2361       0.7006
   24       4.6489      -11.7863      16.4351        -3.3976       8.0464
   25       0.3397        0.1943       0.1454        -0.7110       1.0507
   28      -0.0952       -0.3985       0.3032        -1.0182       0.9230
   29       6.1706       -4.6074      10.7780        -4.9491      11.1197
   30       5.4519       -3.2309       8.6828        -5.6239      11.0758
   31       4.9048        2.3923       2.5124        -6.2087      11.1134
   42     200.0745       -0.0039     200.0784         0.0023     200.0722
 Sum      220.9596      -17.4092     238.3687       -23.1424     244.1019

 Contributions to Isotropic shielding for atom   12 (    32.4725 ppm):
                         Standard Origin              Atomic Origin
 NLMO      Total    Paramagnetic  Diamagnetic   Paramagnetic  Diamagnetic
    1       1.3881       -0.2736       1.6617         0.3951       0.9930
    2      26.3512        0.1251      26.2261         0.4532      25.8980
    3       1.9730        1.3502       0.6228         0.1409       1.8321
    4       1.8343        2.3115      -0.4772         0.0027       1.8316
    5      -0.1530        0.7235      -0.8765        -1.1392       0.9862
 Sum       31.3936        4.2367      27.1569        -0.1474      31.5409

 Contributions to Isotropic shielding for atom   13 (    32.7000 ppm):
                         Standard Origin              Atomic Origin
 NLMO      Total    Paramagnetic  Diamagnetic   Paramagnetic  Diamagnetic
    1       1.6888       -1.4193       3.1081         0.8002       0.8886
    2       1.9282        1.6717       0.2565         0.1059       1.8223
    3      26.3774        0.3356      26.0418         0.4110      25.9664
    4       1.9269        1.4236       0.5033         0.1096       1.8173
 Sum       31.9213        2.0116      29.9097         1.4266      30.4947

 Contributions to Isotropic shielding for atom   14 (    32.5881 ppm):
                         Standard Origin              Atomic Origin
 NLMO      Total    Paramagnetic  Diamagnetic   Paramagnetic  Diamagnetic
    1       1.4607       -0.4864       1.9471         0.4865       0.9742
    2       1.8902        2.4183      -0.5281         0.0424       1.8478
    3       1.9670        1.1722       0.7947         0.1270       1.8400
    4      26.4063        0.1731      26.2332         0.4601      25.9462
    6      -0.1264        0.5676      -0.6940        -1.0222       0.8958
   20      -0.2226       -0.0536      -0.1689        -1.0185       0.7959
 Sum       31.3752        3.7912      27.5840        -0.9248      32.3000

 Contributions to Isotropic shielding for atom   15 (    32.4101 ppm):
                         Standard Origin              Atomic Origin
 NLMO      Total    Paramagnetic  Diamagnetic   Paramagnetic  Diamagnetic
    1       0.7674        2.3519      -1.5845        -0.2227       0.9901
    4       0.2528       -0.7911       1.0440        -0.7223       0.9751
    5       1.3792        0.7894       0.5898         0.4218       0.9574
    6       1.4158        0.3952       1.0206         0.4020       1.0137
    7      26.4452       -0.1518      26.5970         0.4184      26.0268
   19       0.0253       -0.2381       0.2634        -1.0260       1.0514
   21      -0.1199       -0.1235       0.0036        -1.2759       1.1560
 Sum       30.1658        2.2320      27.9338        -2.0047      32.1705

 Contributions to Isotropic shielding for atom   16 (    31.9194 ppm):
                         Standard Origin              Atomic Origin
 NLMO      Total    Paramagnetic  Diamagnetic   Paramagnetic  Diamagnetic
    3      -0.1879       -1.2123       1.0244        -0.7626       0.5747
    8       1.1399        0.0932       1.0467        -0.0912       1.2311
   10       0.5479        1.1975      -0.6496        -1.0898       1.6377
   11      26.8290        0.2244      26.6046         0.7089      26.1200
   17      -0.1186       -0.4824       0.3638        -1.2539       1.1353
   22       0.3310       -0.7336       1.0647        -0.6216       0.9526
 Sum       28.5413       -0.9133      29.4546        -3.1102      31.6515

 Contributions to Isotropic shielding for atom   17 (    32.4348 ppm):
                         Standard Origin              Atomic Origin
 NLMO      Total    Paramagnetic  Diamagnetic   Paramagnetic  Diamagnetic
   12       1.3017        0.5965       0.7052         0.3078       0.9940
   13       1.0128        1.3784      -0.3656         0.0142       0.9986
   14      26.3871       -0.0010      26.3881         0.4573      25.9298
   15       2.1090        1.2590       0.8499         0.3470       1.7620
   17       0.0213       -0.1142       0.1355        -1.0029       1.0242
   29      -0.2075       -1.1540       0.9465        -0.9559       0.7484
 Sum       30.6244        1.9647      28.6597        -0.8326      31.4570

 Contributions to Isotropic shielding for atom   18 (    32.6977 ppm):
                         Standard Origin              Atomic Origin
 NLMO      Total    Paramagnetic  Diamagnetic   Paramagnetic  Diamagnetic
   12       1.3853        0.0191       1.3661         0.5167       0.8685
   13       1.1338        0.7644       0.3693         0.1841       0.9497
   14       2.0459        1.5100       0.5360         0.2818       1.7641
   15      26.4169        0.1710      26.2459         0.4066      26.0102
   16      -0.1610       -0.1629       0.0019        -1.0897       0.9287
   26      -0.3790       -1.2652       0.8862        -0.8930       0.5140
   29      -0.1916       -1.1776       0.9860        -0.7928       0.6012
 Sum       30.2501       -0.1413      30.3915        -1.3863      31.6364

 Contributions to Isotropic shielding for atom   19 (    32.0096 ppm):
                         Standard Origin              Atomic Origin
 NLMO      Total    Paramagnetic  Diamagnetic   Paramagnetic  Diamagnetic
    8       1.1675        0.8994       0.2681         0.0503       1.1172
   10       0.1419       -0.1697       0.3116        -0.9161       1.0580
   11      -0.1430       -0.5804       0.4374        -1.2587       1.1157
   12       1.1490        0.9702       0.1788         0.0344       1.1146
   14       0.0028       -0.4885       0.4913        -1.0373       1.0401
   16       1.0473        1.3889      -0.3416        -0.2413       1.2887
   17      26.5183       -0.1940      26.7123         0.4175      26.1007
   30      -0.1275       -1.5125       1.3850        -1.0100       0.8825
 Sum       29.7563        0.3134      29.4429        -3.9613      33.7176

 Contributions to Isotropic shielding for atom   20 (    32.9002 ppm):
                         Standard Origin              Atomic Origin
 NLMO      Total    Paramagnetic  Diamagnetic   Paramagnetic  Diamagnetic
    1      -0.1285       -0.3643       0.2358        -1.1951       1.0666
    3      -0.0231       -1.1232       1.1001        -0.9653       0.9422
    5       1.2642        0.6381       0.6261         0.4869       0.7773
   13       1.3124        0.0169       1.2955         0.3900       0.9224
   18      26.4571        0.1467      26.3104         0.4464      26.0107
   19       1.9751        1.9518       0.0232         0.1981       1.7769
 Sum       30.8572        1.2661      29.5911        -0.6390      31.4961

 Contributions to Isotropic shielding for atom   21 (    32.3771 ppm):
                         Standard Origin              Atomic Origin
 NLMO      Total    Paramagnetic  Diamagnetic   Paramagnetic  Diamagnetic
    2      -0.0710       -1.1909       1.1199        -0.9251       0.8540
    5       1.0301        1.1765      -0.1465         0.0777       0.9524
    7       0.0664       -0.1761       0.2425        -0.9618       1.0282
   13       1.2045        0.7122       0.4923         0.2367       0.9678
   18       2.0102        1.6505       0.3597         0.2476       1.7626
   19      26.4127       -0.0366      26.4493         0.4632      25.9495
 Sum       30.6529        2.1356      28.5173        -0.8616      31.5145

 Contributions to Isotropic shielding for atom   22 (    33.0802 ppm):
                         Standard Origin              Atomic Origin
 NLMO      Total    Paramagnetic  Diamagnetic   Paramagnetic  Diamagnetic
    1      -0.1523       -0.4136       0.2613        -1.2737       1.1214
    4      -0.0480       -1.4553       1.4073        -0.9844       0.9364
    6       1.0345        1.4067      -0.3722         0.1575       0.8770
    9       1.2502        0.7906       0.4596         0.3852       0.8650
   10      -0.1881        0.2406      -0.4287        -1.3496       1.1614
   20      26.5364        0.0431      26.4933         0.4839      26.0524
   21       2.1384        1.2930       0.8453         0.2898       1.8485
   22      -0.0323       -1.0969       1.0646        -0.7150       0.6827
 Sum       30.5387        0.8082      29.7305        -3.0063      33.5450

 Contributions to Isotropic shielding for atom   23 (    32.1880 ppm):
                         Standard Origin              Atomic Origin
 NLMO      Total    Paramagnetic  Diamagnetic   Paramagnetic  Diamagnetic
    6       1.1536        0.4288       0.7248         0.1339       1.0196
    7      -0.0451       -0.8865       0.8414        -1.1679       1.1229
    9       1.4229       -0.0106       1.4336         0.5092       0.9138
   10       0.0041       -0.2082       0.2123        -1.1566       1.1607
   20       1.8841        1.3112       0.5729         0.0086       1.8755
   21      26.2642        0.1705      26.0937         0.3796      25.8846
   27      -0.3258       -1.0053       0.6795        -0.8867       0.5609
 Sum       30.3580       -0.2002      30.5582        -2.1800      32.5380

 Contributions to Isotropic shielding for atom   24 (    35.1720 ppm):
                         Standard Origin              Atomic Origin
 NLMO      Total    Paramagnetic  Diamagnetic   Paramagnetic  Diamagnetic
    9      -0.2191        0.3443      -0.5634        -1.2289       1.0098
   10       1.4353        2.2175      -0.7821         0.7391       0.6962
   11       0.1984        0.3248      -0.1264        -0.8382       1.0366
   20      -0.0853       -0.5416       0.4562        -1.0164       0.9311
   22      23.0388       -0.4964      23.5353        -0.0936      23.1324
   43       4.1918        0.8701       3.3217         2.2523       1.9395
   44       5.6792        2.5533       3.1258         2.5095       3.1697
 Sum       34.2391        5.2719      28.9672         2.3238      31.9153

 Contributions to Isotropic shielding for atom   25 (    31.7721 ppm):
                         Standard Origin              Atomic Origin
 NLMO      Total    Paramagnetic  Diamagnetic   Paramagnetic  Diamagnetic
   10       0.1654       -0.4704       0.6358        -1.2096       1.3750
   16       1.5256        0.0282       1.4974         0.4969       1.0287
   23       1.0230        1.2997      -0.2767        -0.0106       1.0336
   24       0.7557        2.1142      -1.3585        -0.2752       1.0309
   25      26.1949       -0.0971      26.2920         0.4278      25.7671
   43      -0.7995       -0.0022      -0.7973         0.4629      -1.2624
 Sum       28.8651        2.8724      25.9926        -0.1078      28.9729

 Contributions to Isotropic shielding for atom   26 (    32.7536 ppm):
                         Standard Origin              Atomic Origin
 NLMO      Total    Paramagnetic  Diamagnetic   Paramagnetic  Diamagnetic
   12      -0.0879       -0.0617      -0.0262        -1.0372       0.9493
   23       1.4252       -0.4240       1.8491         0.4956       0.9296
   26      26.4272        0.2619      26.1653         0.3654      26.0618
   27       2.1458        0.2778       1.8679         0.3101       1.8357
   28       1.9769        1.9381       0.0388         0.1374       1.8395
 Sum       31.8871        1.9922      29.8950         0.2713      31.6158

 Contributions to Isotropic shielding for atom   27 (    32.2421 ppm):
                         Standard Origin              Atomic Origin
 NLMO      Total    Paramagnetic  Diamagnetic   Paramagnetic  Diamagnetic
    8      -0.1167       -0.0241      -0.0926        -1.0182       0.9015
   10       0.1219       -0.4445       0.5664        -1.0782       1.2000
   23       1.4951       -0.5735       2.0686         0.4672       1.0279
   26       2.1159        0.2991       1.8169         0.2868       1.8291
   27      26.1378        0.3092      25.8286         0.3839      25.7539
   28       1.9614        1.7885       0.1729         0.0849       1.8765
   43      -0.4513        0.1604      -0.6116         0.6533      -1.1045
 Sum       31.2642        1.5150      29.7492        -0.2202      31.4844

 Contributions to Isotropic shielding for atom   28 (    32.5382 ppm):
                         Standard Origin              Atomic Origin
 NLMO      Total    Paramagnetic  Diamagnetic   Paramagnetic  Diamagnetic
   23       1.1328        1.0244       0.1084         0.1014       1.0314
   24      -0.1460        0.4449      -0.5910        -1.1442       0.9982
   26       2.0158        1.5640       0.4518         0.1623       1.8536
   27       2.0666        1.4535       0.6131         0.1793       1.8873
   28      26.3536       -0.0273      26.3808         0.4032      25.9504
   31      -0.0922       -1.0657       0.9735        -0.9856       0.8934
 Sum       31.3306        3.3940      27.9366        -1.2837      32.6143

 Contributions to Isotropic shielding for atom   29 (    32.5776 ppm):
                         Standard Origin              Atomic Origin
 NLMO      Total    Paramagnetic  Diamagnetic   Paramagnetic  Diamagnetic
   12      -0.0567        0.1956      -0.2523        -1.1033       1.0466
   23      -0.1436        0.3318      -0.4754        -1.0427       0.8991
   24       1.5706       -1.1680       2.7386         0.6457       0.9249
   29      26.3559        0.2841      26.0717         0.4115      25.9443
   30       2.0016        0.9314       1.0702         0.1920       1.8097
   31       1.8970        2.0055      -0.1086         0.0511       1.8459
 Sum       31.6247        2.5805      29.0442        -0.8457      32.4704

 Contributions to Isotropic shielding for atom   30 (    32.5043 ppm):
                         Standard Origin              Atomic Origin
 NLMO      Total    Paramagnetic  Diamagnetic   Paramagnetic  Diamagnetic
   24       1.5444       -0.7569       2.3013         0.5215       1.0229
   29       2.0251        0.8541       1.1710         0.2034       1.8217
   30      26.3953        0.2517      26.1436         0.4242      25.9711
   31       1.8942        2.2977      -0.4035         0.0487       1.8454
 Sum       31.8590        2.6466      29.2124         1.1978      30.6612

 Contributions to Isotropic shielding for atom   31 (    32.4107 ppm):
                         Standard Origin              Atomic Origin
 NLMO      Total    Paramagnetic  Diamagnetic   Paramagnetic  Diamagnetic
   23      -0.1679        0.7407      -0.9086        -1.1116       0.9437
   24       1.3020        0.2043       1.0977         0.2708       1.0312
   29       1.9501        1.6549       0.2951         0.0958       1.8543
   30       1.9188        2.0058      -0.0870         0.0742       1.8446
   31      26.3586        0.0233      26.3353         0.4467      25.9120
 Sum       31.3616        4.6290      26.7325        -0.2242      31.5857
 
 1\1\GINC-COMPUTE-9-6\SP\RHF\STO-3G\C10H20O1\YTSAI.IQUIR\03-Aug-2021\0\
 \# rhf/STO-3G nmr pop=nbo\\comment\\0,1\C,0,0.381407008,0.486720716,-3
 .440581752\C,0,-0.334888919,0.08878338,-2.149187334\C,0,1.281088544,-0
 .268630205,-0.211588086\C,0,-0.914638548,1.005420298,0.136725783\C,0,0
 .368986853,0.465719582,0.807926215\C,0,-0.687449319,1.342995839,-1.332
 807981\C,0,0.489632103,-0.928040405,-1.341486723\O,0,2.118205019,-1.22
 304319,0.428961119\C,0,0.093611224,-0.298448484,2.138314051\C,0,-0.639
 357021,-1.631667453,1.965423979\C,0,-0.6700997,0.575374475,3.141747765
 \H,0,-0.22312747,1.194579092,-4.017524989\H,0,1.348557995,0.956197063,
 -3.231445899\H,0,0.560652395,-0.390368115,-4.07141236\H,0,-1.270838913
 ,-0.407210614,-2.439400675\H,0,1.954964983,0.474359256,-0.658320019\H,
 0,-1.25217601,1.905533192,0.664254634\H,0,-1.731262044,0.278608713,0.2
 04376413\H,0,0.949486135,1.352038753,1.108717536\H,0,0.110330343,2.093
 124257,-1.408623102\H,0,-1.588929641,1.806727876,-1.751141999\H,0,1.16
 0362245,-1.500723771,-1.99413873\H,0,-0.187541041,-1.677844821,-0.9137
 60316\H,0,2.685581908,-1.623009696,-0.251808118\H,0,1.065122421,-0.518
 734218,2.600732816\H,0,-1.63287735,-1.500972329,1.527040556\H,0,-0.075
 67142,-2.324664939,1.335575323\H,0,-0.772804085,-2.121230017,2.9368209
 28\H,0,-1.695357444,0.77215523,2.812141309\H,0,-0.165024896,1.53600393
 6,3.287016983\H,0,-0.725945359,0.0802466,4.117452673\\Version=EM64L-G0
 9RevC.01\State=1-A\HF=-459.6097768\RMSD=7.917e-09\Dipole=-0.0281758,0.
 1179714,-0.5100916\Quadrupole=0.7110026,-0.0108012,-0.7002013,-0.13319
 41,-1.8609969,1.3768373\PG=C01 [X(C10H20O1)]\\@


 CHARLIE BROWN..'I CAN'T GET THAT STUPID KITE IN THE   
 AIR... I CAN'T... I C A N N O T...'                          
 LUCY..'OH COME NOW CHARLIE BROWN...THAT'S NO WAY TO TALK...  
 THE TROUBLE WITH YOU IS YOU DON'T BELIEVE IN YOURSELF... YOU 
 DON'T BELIEVE IN YOUR OWN ABILITIES...  YOU'VE GOT TO SAY TO 
 YOURSELF...'I BELIEVE I CAN FLY THIS KITE.'... GO AHEAD SAY  
 IT....'
 CHARLIE BROWN..'I BELIEVE THAT I CAN FLY THIS STUPID  
 KITE.....I BELIEVE THAT I CAN FLY THIS KITE........          
 I  A C T U A L L Y  B E L I E V E  T H A T  I  C A N ******' 
 LUCY..'I'LL BET YOU TEN-TO-ONE YOU'RE WRONG.......'    SCHULZ
 Job cpu time:  0 days  0 hours  0 minutes 22.9 seconds.
 File lengths (MBytes):  RWF=      5 Int=      0 D2E=      0 Chk=      1 Scr=      1
 Normal termination of Gaussian 09 at Tue Aug  3 16:37:51 2021.
