 Entering Gaussian System, Link 0=g09
 Input=/home/ytsai.iquir/menthol/04_menthol_M0052_MMFF_NMR_rhf_STO-3G_nbo.gjc
 Output=/home/ytsai.iquir/menthol/04_menthol_M0052_MMFF_NMR_rhf_STO-3G_nbo.log
 Initial command:
 /share/apps/Gaussian09/EM64T.SSE4.2-enabled/g09/l1.exe /tmp/Gau-21953.inp -scrdir=/tmp/
 Entering Link 1 = /share/apps/Gaussian09/EM64T.SSE4.2-enabled/g09/l1.exe PID=     21954.
  
 Copyright (c) 1988,1990,1992,1993,1995,1998,2003,2009,2011,
            Gaussian, Inc.  All Rights Reserved.
  
 This is part of the Gaussian(R) 09 program.  It is based on
 the Gaussian(R) 03 system (copyright 2003, Gaussian, Inc.),
 the Gaussian(R) 98 system (copyright 1998, Gaussian, Inc.),
 the Gaussian(R) 94 system (copyright 1995, Gaussian, Inc.),
 the Gaussian 92(TM) system (copyright 1992, Gaussian, Inc.),
 the Gaussian 90(TM) system (copyright 1990, Gaussian, Inc.),
 the Gaussian 88(TM) system (copyright 1988, Gaussian, Inc.),
 the Gaussian 86(TM) system (copyright 1986, Carnegie Mellon
 University), and the Gaussian 82(TM) system (copyright 1983,
 Carnegie Mellon University). Gaussian is a federally registered
 trademark of Gaussian, Inc.
  
 This software contains proprietary and confidential information,
 including trade secrets, belonging to Gaussian, Inc.
  
 This software is provided under written license and may be
 used, copied, transmitted, or stored only in accord with that
 written license.
  
 The following legend is applicable only to US Government
 contracts under FAR:
  
                    RESTRICTED RIGHTS LEGEND
  
 Use, reproduction and disclosure by the US Government is
 subject to restrictions as set forth in subparagraphs (a)
 and (c) of the Commercial Computer Software - Restricted
 Rights clause in FAR 52.227-19.
  
 Gaussian, Inc.
 340 Quinnipiac St., Bldg. 40, Wallingford CT 06492
  
  
 ---------------------------------------------------------------
 Warning -- This program may not be used in any manner that
 competes with the business of Gaussian, Inc. or will provide
 assistance to any competitor of Gaussian, Inc.  The licensee
 of this program is prohibited from giving any competitor of
 Gaussian, Inc. access to this program.  By using this program,
 the user acknowledges that Gaussian, Inc. is engaged in the
 business of creating and licensing software in the field of
 computational chemistry and represents and warrants to the
 licensee that it is not a competitor of Gaussian, Inc. and that
 it will not use this program in any manner prohibited above.
 ---------------------------------------------------------------
  

 Cite this work as:
 Gaussian 09, Revision C.01,
 M. J. Frisch, G. W. Trucks, H. B. Schlegel, G. E. Scuseria, 
 M. A. Robb, J. R. Cheeseman, G. Scalmani, V. Barone, B. Mennucci, 
 G. A. Petersson, H. Nakatsuji, M. Caricato, X. Li, H. P. Hratchian, 
 A. F. Izmaylov, J. Bloino, G. Zheng, J. L. Sonnenberg, M. Hada, 
 M. Ehara, K. Toyota, R. Fukuda, J. Hasegawa, M. Ishida, T. Nakajima, 
 Y. Honda, O. Kitao, H. Nakai, T. Vreven, J. A. Montgomery, Jr., 
 J. E. Peralta, F. Ogliaro, M. Bearpark, J. J. Heyd, E. Brothers, 
 K. N. Kudin, V. N. Staroverov, T. Keith, R. Kobayashi, J. Normand, 
 K. Raghavachari, A. Rendell, J. C. Burant, S. S. Iyengar, J. Tomasi, 
 M. Cossi, N. Rega, J. M. Millam, M. Klene, J. E. Knox, J. B. Cross, 
 V. Bakken, C. Adamo, J. Jaramillo, R. Gomperts, R. E. Stratmann, 
 O. Yazyev, A. J. Austin, R. Cammi, C. Pomelli, J. W. Ochterski, 
 R. L. Martin, K. Morokuma, V. G. Zakrzewski, G. A. Voth, 
 P. Salvador, J. J. Dannenberg, S. Dapprich, A. D. Daniels, 
 O. Farkas, J. B. Foresman, J. V. Ortiz, J. Cioslowski, 
 and D. J. Fox, Gaussian, Inc., Wallingford CT, 2010.
 
 ******************************************
 Gaussian 09:  EM64L-G09RevC.01 23-Sep-2011
                 3-Aug-2021 
 ******************************************
 %nprocshared=4
 Will use up to    4 processors via shared memory.
 ------------------------
 # rhf/STO-3G nmr pop=nbo
 ------------------------
 1/38=1/1;
 2/12=2,17=6,18=5,40=1/2;
 3/6=3,11=1,16=1,25=1,30=1,116=1/1,2,8,3;
 4//1;
 5/5=2,38=5/2;
 8/6=1,10=90,11=11/1;
 10/13=100,45=16/2;
 6/7=2,8=2,9=2,10=2,28=1,64=1/1,7;
 99/9=1/99;
 -------
 comment
 -------
 Charge =  0 Multiplicity = 1
 Symbolic Z-Matrix:
 6                     0.37454   0.4405   -3.4835 
 6                    -0.33812   0.06925  -2.18222 
 6                     1.27818  -0.31923  -0.2525 
 6                    -0.88046   1.0128    0.10196 
 6                     0.38681   0.43334   0.7721 
 6                    -0.64911   1.33724  -1.36998 
 6                     0.4684   -0.96359  -1.37648 
 8                     2.10048  -1.30332   0.36066 
 6                     0.08522  -0.33041   2.09739 
 6                    -0.67296  -1.64784   1.91408 
 6                    -0.66773   0.55527   3.09874 
 1                     1.35555   0.88626  -3.28742 
 1                     0.52456  -0.44487  -4.11037 
 1                    -0.21764   1.16006  -4.05878 
 1                    -1.28973  -0.40384  -2.45945 
 1                     1.96324   0.4049   -0.71324 
 1                    -1.18652   1.92533   0.62743 
 1                    -1.72039   0.31356   0.17531 
 1                     0.992     1.3006    1.07938 
 1                     0.17064   2.06255  -1.45243 
 1                    -1.53795   1.82622  -1.78662 
 1                     1.12624  -1.55111  -2.02925 
 1                    -0.22289  -1.6987   -0.946 
 1                     2.68315  -0.84516   0.99004 
 1                     1.04728  -0.5728    2.56774 
 1                    -1.65617  -1.49695   1.45931 
 1                    -0.11326  -2.35313   1.29438 
 1                    -0.83224  -2.13367   2.88346 
 1                    -1.68678   0.77331   2.76335 
 1                    -0.14461   1.50519   3.25046 
 1                    -0.73972   0.05826   4.07245 
 
                          Input orientation:                          
 ---------------------------------------------------------------------
 Center     Atomic      Atomic             Coordinates (Angstroms)
 Number     Number       Type             X           Y           Z
 ---------------------------------------------------------------------
      1          6           0        0.374536    0.440500   -3.483498
      2          6           0       -0.338116    0.069248   -2.182221
      3          6           0        1.278184   -0.319226   -0.252497
      4          6           0       -0.880463    1.012798    0.101955
      5          6           0        0.386810    0.433341    0.772097
      6          6           0       -0.649114    1.337238   -1.369984
      7          6           0        0.468396   -0.963591   -1.376476
      8          8           0        2.100480   -1.303322    0.360659
      9          6           0        0.085222   -0.330415    2.097393
     10          6           0       -0.672964   -1.647841    1.914076
     11          6           0       -0.667732    0.555265    3.098744
     12          1           0        1.355547    0.886255   -3.287421
     13          1           0        0.524563   -0.444875   -4.110366
     14          1           0       -0.217635    1.160063   -4.058777
     15          1           0       -1.289729   -0.403845   -2.459452
     16          1           0        1.963241    0.404898   -0.713238
     17          1           0       -1.186519    1.925327    0.627432
     18          1           0       -1.720390    0.313556    0.175308
     19          1           0        0.991997    1.300601    1.079380
     20          1           0        0.170640    2.062551   -1.452425
     21          1           0       -1.537955    1.826222   -1.786619
     22          1           0        1.126242   -1.551113   -2.029250
     23          1           0       -0.222890   -1.698695   -0.945997
     24          1           0        2.683152   -0.845162    0.990038
     25          1           0        1.047282   -0.572800    2.567735
     26          1           0       -1.656169   -1.496947    1.459307
     27          1           0       -0.113258   -2.353126    1.294385
     28          1           0       -0.832238   -2.133666    2.883456
     29          1           0       -1.686785    0.773308    2.763351
     30          1           0       -0.144612    1.505187    3.250458
     31          1           0       -0.739722    0.058265    4.072447
 ---------------------------------------------------------------------
                    Distance matrix (angstroms):
                    1          2          3          4          5
     1  C    0.000000
     2  C    1.529386   0.000000
     3  C    3.439931   2.546993   0.000000
     4  C    3.841617   2.530196   2.561187   0.000000
     5  C    4.255618   3.063671   1.552642   1.546234   0.000000
     6  C    2.513750   1.537611   2.776171   1.524923   2.545325
     7  C    2.533737   1.538325   1.527838   2.812702   2.564067
     8  O    4.560410   3.781130   1.421470   3.783829   2.474257
     9  C    5.641307   4.319033   2.635388   2.592014   1.559066
    10  C    5.881516   4.454231   3.204097   3.225808   2.599722
    11  C    6.665238   5.313516   3.972675   3.038969   2.557384
    12  H    1.095230   2.181161   3.266486   4.062466   4.198008
    13  H    1.095153   2.174000   3.932795   4.673602   4.962729
    14  H    1.095164   2.173903   4.348970   4.215771   4.922481
    15  H    2.128700   1.098290   3.387032   2.955535   3.735582
    16  H    3.193680   2.750785   1.098153   3.020056   2.166140
    17  H    4.641265   3.472602   3.447760   1.096588   2.173088
    18  H    4.218019   2.743777   3.094330   1.095353   2.193353
    19  H    4.684109   3.731417   2.116516   2.131735   1.101278
    20  H    2.607274   2.182818   2.887792   2.150093   2.765783
    21  H    2.908134   2.164041   3.858382   2.158858   3.491685
    22  H    2.578065   2.189364   2.167368   3.891342   3.511746
    23  H    3.372238   2.160360   2.153393   2.980403   2.805202
    24  H    5.195686   4.475202   1.947932   4.115830   2.637282
    25  H    6.172259   4.989353   2.841008   3.508617   2.161680
    26  H    5.684081   4.177435   3.595515   2.956847   2.893447
    27  H    5.556118   4.243259   2.909588   3.652387   2.878758
    28  H    6.972857   5.545996   4.192884   4.199917   3.540260
    29  H    6.586571   5.174291   4.368067   2.791153   2.894903
    30  H    6.837341   5.622577   4.198038   3.270626   2.752006
    31  H    7.647220   6.267558   4.787441   4.086043   3.507431
                    6          7          8          9         10
     6  C    0.000000
     7  C    2.557867   0.000000
     8  O    4.186640   2.407645   0.000000
     9  C    3.917016   3.551830   2.832677   0.000000
    10  C    4.438053   3.549455   3.197466   1.531033   0.000000
    11  C    4.536668   4.860587   4.314447   1.534299   2.501428
    12  H    2.810448   2.803691   4.319452   5.664825   6.131238
    13  H    3.473202   2.783231   4.817729   6.224338   6.259001
    14  H    2.728951   3.489310   5.565370   6.341268   6.615635
    15  H    2.151441   2.139430   4.500623   4.760328   4.588647
    16  H    2.850434   2.132419   2.022401   3.459377   4.250423
    17  H    2.150424   3.885902   4.615160   2.977663   3.832325
    18  H    2.140907   2.971518   4.153035   2.714653   2.822675
    19  H    2.948554   3.381117   2.919882   2.125748   3.487423
    20  H    1.097667   3.041704   4.282600   4.281914   5.080552
    21  H    1.096690   3.460740   5.257667   4.729834   5.149026
    22  H    3.453852   1.097296   2.592722   4.427529   4.335472
    23  H    3.094886   1.097072   2.694757   3.351021   2.895716
    24  H    4.629964   3.243387   0.972386   2.870617   3.572346
    25  H    4.693787   4.005574   2.552268   1.097967   2.131250
    26  H    4.129365   3.583282   3.918792   2.190981   1.093745
    27  H    4.583098   3.066370   2.621939   2.185309   1.093030
    28  H    5.492946   4.605187   3.956616   2.170563   1.095943
    29  H    4.298748   4.979938   4.942539   2.191281   2.758815
    30  H    4.650937   5.280072   4.612927   2.179866   3.465062
    31  H    5.591425   5.674020   4.868063   2.175418   2.752057
                   11         12         13         14         15
    11  C    0.000000
    12  H    6.707185   0.000000
    13  H    7.375169   1.771914   0.000000
    14  H    7.197116   1.773377   1.768996   0.000000
    15  H    5.674533   3.057348   2.453335   2.480531   0.000000
    16  H    4.634203   2.688386   3.785814   4.064373   3.779570
    17  H    2.872907   4.782034   5.567080   4.846124   3.868404
    18  H    3.116567   4.666891   4.897145   4.571906   2.764434
    19  H    2.718098   4.401455   5.495329   5.280494   4.542548
    20  H    4.867024   2.480905   3.671116   2.785375   3.038073
    21  H    5.122440   3.392389   3.848592   2.711035   2.342545
    22  H    5.826791   2.752515   2.432452   3.643551   2.708914
    23  H    4.651683   3.828277   3.484822   4.226338   2.259499
    24  H    4.199555   4.801770   5.552824   6.158411   5.279918
    25  H    2.120324   6.042080   6.699748   6.965163   5.546421
    26  H    2.806482   6.105860   6.073195   6.291131   4.084829
    27  H    3.467260   5.800339   5.767110   6.403884   4.390339
    28  H    2.702547   7.210136   7.321644   7.708501   5.634559
    29  H    1.094760   6.773506   7.322705   6.989235   5.368521
    30  H    1.094999   6.736277   7.644100   7.317743   6.128521
    31  H    1.095577   7.696973   8.295179   8.222125   6.571283
                   16         17         18         19         20
    16  H    0.000000
    17  H    3.745676   0.000000
    18  H    3.790382   1.757054   0.000000
    19  H    2.226898   2.310946   3.024673   0.000000
    20  H    2.551006   2.487271   3.047047   2.768615   0.000000
    21  H    3.928191   2.441510   2.484069   3.858871   1.756938
    22  H    2.501687   4.948985   4.054674   4.220648   3.782125
    23  H    3.042770   4.066669   2.747542   3.817575   3.815536
    24  H    2.232055   4.772991   4.625753   2.733548   4.553365
    25  H    3.543961   3.872374   3.764219   2.393301   4.886232
    26  H    4.630021   3.553104   2.220518   3.870841   4.948277
    27  H    3.993632   4.461151   3.308534   3.823289   5.208048
    28  H    5.214904   4.657314   3.756564   4.286807   6.116688
    29  H    5.054214   2.477814   2.628777   3.207751   4.783821
    30  H    4.622182   2.853481   3.655080   2.459129   4.746278
    31  H    5.507172   3.943815   4.026733   3.674331   5.947280
                   21         22         23         24         25
    21  H    0.000000
    22  H    4.308504   0.000000
    23  H    3.855008   1.736484   0.000000
    24  H    5.715230   3.469645   3.594695   0.000000
    25  H    5.603495   4.700596   3.902216   2.288969   0.000000
    26  H    4.646877   4.462597   2.807218   4.413020   3.064525
    27  H    5.384171   3.636775   2.336580   3.191628   2.477465
    28  H    6.163469   5.320686   3.901950   4.195622   2.463448
    29  H    4.672580   6.023709   4.691806   4.986023   3.053751
    30  H    5.236088   6.231481   5.280267   4.316235   2.490934
    31  H    6.171832   6.580473   5.342172   4.693985   2.419873
                   26         27         28         29         30
    26  H    0.000000
    27  H    1.772235   0.000000
    28  H    1.764221   1.757909   0.000000
    29  H    2.618306   3.795845   3.032354   0.000000
    30  H    3.808653   4.325943   3.721393   1.775167   0.000000
    31  H    3.176014   3.731607   2.495359   1.766903   1.767316
                   31
    31  H    0.000000
 Stoichiometry    C10H20O
 Framework group  C1[X(C10H20O)]
 Deg. of freedom    87
 Full point group                 C1      NOp   1
 Largest Abelian subgroup         C1      NOp   1
 Largest concise Abelian subgroup C1      NOp   1
                         Standard orientation:                         
 ---------------------------------------------------------------------
 Center     Atomic      Atomic             Coordinates (Angstroms)
 Number     Number       Type             X           Y           Z
 ---------------------------------------------------------------------
      1          6           0        3.518348   -0.078766   -0.009543
      2          6           0        2.125844   -0.361940    0.555934
      3          6           0        0.302897    0.993998   -0.595356
      4          6           0       -0.056418   -1.484660   -0.059795
      5          6           0       -0.687678   -0.200537   -0.645782
      6          6           0        1.458934   -1.503348   -0.229346
      7          6           0        1.264596    0.912266    0.589020
      8          8           0       -0.360479    2.251071   -0.578665
      9          6           0       -2.119913    0.083451   -0.099211
     10          6           0       -2.169472    0.483660    1.377758
     11          6           0       -3.059082   -1.106479   -0.336066
     12          1           0        3.462629    0.293881   -1.037919
     13          1           0        4.037487    0.672655    0.594793
     14          1           0        4.129625   -0.987460   -0.009256
     15          1           0        2.260724   -0.691904    1.594766
     16          1           0        0.907335    0.981650   -1.512113
     17          1           0       -0.484806   -2.362370   -0.558406
     18          1           0       -0.287626   -1.587070    1.005969
     19          1           0       -0.830705   -0.394923   -1.720292
     20          1           0        1.700777   -1.433329   -1.297748
     21          1           0        1.859444   -2.464025    0.116227
     22          1           0        1.889371    1.813243    0.633229
     23          1           0        0.688152    0.928929    1.522295
     24          1           0       -0.875875    2.319465   -1.400385
     25          1           0       -2.536005    0.920016   -0.675891
     26          1           0       -1.782187   -0.303731    2.030678
     27          1           0       -1.600536    1.397361    1.567961
     28          1           0       -3.202710    0.683311    1.683781
     29          1           0       -2.784194   -1.970451    0.277522
     30          1           0       -3.044608   -1.412333   -1.387382
     31          1           0       -4.090788   -0.837348   -0.084192
 ---------------------------------------------------------------------
 Rotational constants (GHZ):      1.7333432      0.7475106      0.6201901
 Standard basis: STO-3G (5D, 7F)
 There are    75 symmetry adapted basis functions of A   symmetry.
 Integral buffers will be    131072 words long.
 Raffenetti 1 integral format.
 Two-electron integral symmetry is turned on.
    75 basis functions,   225 primitive gaussians,    75 cartesian basis functions
    44 alpha electrons       44 beta electrons
       nuclear repulsion energy       696.8690161525 Hartrees.
 NAtoms=   31 NActive=   31 NUniq=   31 SFac= 1.00D+00 NAtFMM=   60 NAOKFM=F Big=F
 One-electron integrals computed using PRISM.
 NBasis=    75 RedAO= T  NBF=    75
 NBsUse=    75 1.00D-06 NBFU=    75
 Harris functional with IExCor=  205 diagonalized for initial guess.
 ExpMin= 1.69D-01 ExpMax= 1.31D+02 ExpMxC= 1.31D+02 IAcc=1 IRadAn=         1 AccDes= 0.00D+00
 HarFok:  IExCor=  205 AccDes= 0.00D+00 IRadAn=         1 IDoV= 1
 ScaDFX=  1.000000  1.000000  1.000000  1.000000
 FoFCou: FMM=F IPFlag=           0 FMFlag=      100000 FMFlg1=           0
         NFxFlg=           0 DoJE=T BraDBF=F KetDBF=T FulRan=T
         Omega=  0.000000  0.000000  1.000000  0.000000  0.000000 ICntrl=     500 IOpCl=  0
         NMat0=    1 NMatS0=    1 NMatT0=    0 NMatD0=    1 NMtDS0=    0 NMtDT0=    0
         I1Cent=           4 NGrid=           0.
 Petite list used in FoFCou.
 Initial guess orbital symmetries:
       Occupied  (A) (A) (A) (A) (A) (A) (A) (A) (A) (A) (A) (A)
                 (A) (A) (A) (A) (A) (A) (A) (A) (A) (A) (A) (A)
                 (A) (A) (A) (A) (A) (A) (A) (A) (A) (A) (A) (A)
                 (A) (A) (A) (A) (A) (A) (A) (A)
       Virtual   (A) (A) (A) (A) (A) (A) (A) (A) (A) (A) (A) (A)
                 (A) (A) (A) (A) (A) (A) (A) (A) (A) (A) (A) (A)
                 (A) (A) (A) (A) (A) (A) (A)
 The electronic state of the initial guess is 1-A.
 Requested convergence on RMS density matrix=1.00D-08 within 128 cycles.
 Requested convergence on MAX density matrix=1.00D-06.
 Requested convergence on             energy=1.00D-06.
 No special actions if energy rises.
 Keep R1 ints in memory in canonical form, NReq=4898789.
 SCF Done:  E(RHF) =  -459.609919077     A.U. after   10 cycles
             Convg  =    0.9228D-08             -V/T =  2.0089
 Range of M.O.s used for correlation:     1    75
 NBasis=    75 NAE=    44 NBE=    44 NFC=     0 NFV=     0
 NROrb=     75 NOA=    44 NOB=    44 NVA=    31 NVB=    31
          Differentiating once with respect to magnetic field using GIAOs.
          Electric field/nuclear overlap derivatives assumed to be zero.
          Keep R3 ints in memory in canonical form, NReq=4863575.
 FoFCou: FMM=F IPFlag=           0 FMFlag=           0 FMFlg1=           0
         NFxFlg=           0 DoJE=F BraDBF=F KetDBF=T FulRan=T
         Omega=  0.000000  0.000000  1.000000  0.000000  0.000000 ICntrl=    6100 IOpCl=  0
         NMat0=    1 NMatS0=    1 NMatT0=    0 NMatD0=    1 NMtDS0=    0 NMtDT0=    0
         I1Cent=           7 NGrid=          31.
 Symmetry not used in FoFCou.
          There are     3 degrees of freedom in the 1st order CPHF.  IDoFFX=0.
      3 vectors produced by pass  0 Test12= 4.55D-14 3.33D-08 XBig12= 7.07D+00 4.14D-01.
 AX will form     3 AO Fock derivatives at one time.
      3 vectors produced by pass  1 Test12= 4.55D-14 3.33D-08 XBig12= 1.02D-02 1.23D-02.
      3 vectors produced by pass  2 Test12= 4.55D-14 3.33D-08 XBig12= 7.09D-05 2.32D-03.
      3 vectors produced by pass  3 Test12= 4.55D-14 3.33D-08 XBig12= 1.76D-06 3.25D-04.
      3 vectors produced by pass  4 Test12= 4.55D-14 3.33D-08 XBig12= 1.93D-08 2.40D-05.
      3 vectors produced by pass  5 Test12= 4.55D-14 3.33D-08 XBig12= 3.10D-10 2.92D-06.
      3 vectors produced by pass  6 Test12= 4.55D-14 3.33D-08 XBig12= 2.67D-12 2.77D-07.
 Inverted reduced A of dimension    21 with in-core refinement.
 Calculating GIAO nuclear magnetic shielding tensors.
 SCF GIAO Magnetic shielding tensor (ppm):
      1  C    Isotropic =   220.8042   Anisotropy =    27.2563
   XX=   236.5510   YX=     5.2184   ZX=    -4.3974
   XY=     4.2227   YY=   214.6416   ZY=     0.8267
   XZ=    -9.3769   YZ=     3.7291   ZZ=   211.2200
   Eigenvalues:   207.6977   215.7398   238.9751
      2  C    Isotropic =   216.0965   Anisotropy =     9.6176
   XX=   222.1260   YX=    -1.4384   ZX=     2.1413
   XY=     0.8657   YY=   218.4264   ZY=     2.2809
   XZ=     2.5685   YZ=     3.2569   ZZ=   207.7370
   Eigenvalues:   206.7024   219.0788   222.5082
      3  C    Isotropic =   188.8010   Anisotropy =    42.8458
   XX=   189.5557   YX=   -16.1369   ZX=     5.5339
   XY=   -15.9601   YY=   208.0898   ZY=     0.4853
   XZ=     2.5540   YZ=     2.5747   ZZ=   168.7573
   Eigenvalues:   167.3415   181.6966   217.3648
      4  C    Isotropic =   219.5386   Anisotropy =    13.1964
   XX=   227.0571   YX=    -2.4654   ZX=    -0.0975
   XY=    -2.8197   YY=   222.4213   ZY=    -2.6314
   XZ=     0.1536   YZ=    -3.1692   ZZ=   209.1376
   Eigenvalues:   208.5174   221.7623   228.3362
      5  C    Isotropic =   210.1791   Anisotropy =    16.3581
   XX=   220.2176   YX=     4.9302   ZX=    -4.4051
   XY=    -2.3039   YY=   211.8485   ZY=    -0.7857
   XZ=    -3.5960   YZ=     1.9349   ZZ=   198.4712
   Eigenvalues:   197.7135   211.7392   221.0845
      6  C    Isotropic =   217.1443   Anisotropy =    17.1581
   XX=   223.4722   YX=     5.7384   ZX=    -0.7778
   XY=     7.8928   YY=   217.5836   ZY=     5.2047
   XZ=     2.0672   YZ=     4.8444   ZZ=   210.3770
   Eigenvalues:   207.3023   215.5475   228.5830
      7  C    Isotropic =   217.0636   Anisotropy =    17.7695
   XX=   222.6826   YX=    -6.1260   ZX=     5.6352
   XY=    -6.1993   YY=   220.8659   ZY=     2.1610
   XZ=     6.7862   YZ=    -0.6996   ZZ=   207.6425
   Eigenvalues:   204.8773   217.4036   228.9100
      8  O    Isotropic =   362.9977   Anisotropy =    79.7846
   XX=   364.6934   YX=    -2.0116   ZX=    27.3267
   XY=    19.4080   YY=   327.9875   ZY=    -0.3382
   XZ=    36.6561   YZ=   -10.6985   ZZ=   396.3122
   Eigenvalues:   323.1017   349.7040   416.1874
      9  C    Isotropic =   214.6898   Anisotropy =    12.4245
   XX=   222.1385   YX=     0.5692   ZX=    -2.2516
   XY=     1.3660   YY=   210.4745   ZY=     5.5483
   XZ=    -3.8393   YZ=     5.7781   ZZ=   211.4563
   Eigenvalues:   204.8316   216.2649   222.9728
     10  C    Isotropic =   224.2094   Anisotropy =    20.2575
   XX=   220.4078   YX=     1.1186   ZX=    -2.5445
   XY=     1.7588   YY=   217.6437   ZY=     6.2056
   XZ=    -0.5912   YZ=     9.5171   ZZ=   234.5766
   Eigenvalues:   213.9842   220.9295   237.7144
     11  C    Isotropic =   221.2291   Anisotropy =    26.1386
   XX=   225.2324   YX=    11.6042   ZX=     3.4538
   XY=    13.0615   YY=   223.8592   ZY=     8.4553
   XZ=     1.1329   YZ=     5.4391   ZZ=   214.5957
   Eigenvalues:   209.1469   215.8856   238.6548
     12  H    Isotropic =    32.5885   Anisotropy =    10.2857
   XX=    33.1695   YX=     1.2308   ZX=    -3.1132
   XY=     1.0999   YY=    28.3910   ZY=    -3.5997
   XZ=    -3.2528   YZ=    -3.6149   ZZ=    36.2051
   Eigenvalues:    26.9793    31.3406    39.4456
     13  H    Isotropic =    32.4336   Anisotropy =    14.1001
   XX=    36.5698   YX=     5.4848   ZX=     3.4440
   XY=     5.0883   YY=    31.8118   ZY=     3.9718
   XZ=     3.2165   YZ=     3.6122   ZZ=    28.9192
   Eigenvalues:    26.2951    29.1721    41.8337
     14  H    Isotropic =    32.4579   Anisotropy =    14.0379
   XX=    37.9161   YX=    -5.6927   ZX=    -0.5924
   XY=    -5.7167   YY=    33.3032   ZY=     0.2868
   XZ=    -0.9088   YZ=     0.7602   ZZ=    26.1543
   Eigenvalues:    26.1007    29.4564    41.8165
     15  H    Isotropic =    32.3560   Anisotropy =    13.1354
   XX=    30.0598   YX=    -1.2044   ZX=     3.1930
   XY=    -1.3871   YY=    28.1511   ZY=    -3.8328
   XZ=     3.1041   YZ=    -3.7740   ZZ=    38.8569
   Eigenvalues:    26.9038    29.0512    41.1129
     16  H    Isotropic =    31.9197   Anisotropy =     9.1776
   XX=    32.2790   YX=     0.2314   ZX=    -4.0355
   XY=    -1.0897   YY=    28.7552   ZY=    -2.2257
   XZ=    -3.9251   YZ=    -2.9286   ZZ=    34.7250
   Eigenvalues:    26.9634    30.7577    38.0382
     17  H    Isotropic =    32.5058   Anisotropy =    13.3886
   XX=    32.8919   YX=     3.0113   ZX=     2.0540
   XY=     3.1171   YY=    38.5695   ZY=     4.2486
   XZ=     2.1576   YZ=     4.4743   ZZ=    26.0559
   Eigenvalues:    24.5281    31.5577    41.4315
     18  H    Isotropic =    32.7053   Anisotropy =     9.2795
   XX=    33.0306   YX=    -0.5101   ZX=    -3.1442
   XY=    -0.4890   YY=    29.5237   ZY=    -4.1008
   XZ=    -3.2651   YZ=    -4.1171   ZZ=    35.5616
   Eigenvalues:    26.8026    32.4216    38.8917
     19  H    Isotropic =    32.5593   Anisotropy =    11.2762
   XX=    30.5327   YX=     0.7924   ZX=     1.3829
   XY=     1.2805   YY=    27.6610   ZY=     1.8903
   XZ=     1.6908   YZ=     1.8976   ZZ=    39.4841
   Eigenvalues:    27.1680    30.4331    40.0767
     20  H    Isotropic =    32.9445   Anisotropy =    10.7242
   XX=    32.5860   YX=    -0.6843   ZX=    -3.4580
   XY=    -0.7086   YY=    28.7964   ZY=     2.9467
   XZ=    -3.4656   YZ=     3.2693   ZZ=    37.4509
   Eigenvalues:    27.7530    30.9865    40.0939
     21  H    Isotropic =    32.3862   Anisotropy =    14.5510
   XX=    31.5739   YX=    -4.2618   ZX=     1.4356
   XY=    -4.5347   YY=    39.8227   ZY=    -1.9340
   XZ=     1.6267   YZ=    -2.0116   ZZ=    25.7622
   Eigenvalues:    25.3171    29.7547    42.0869
     22  H    Isotropic =    32.1666   Anisotropy =    13.1077
   XX=    33.5929   YX=     4.4075   ZX=     2.5251
   XY=     4.4146   YY=    37.2516   ZY=     2.4686
   XZ=     2.2773   YZ=     2.2116   ZZ=    25.6554
   Eigenvalues:    24.8695    30.7252    40.9051
     23  H    Isotropic =    32.1545   Anisotropy =    10.2747
   XX=    32.7934   YX=    -1.1300   ZX=    -3.3185
   XY=    -1.4548   YY=    27.1948   ZY=     2.7679
   XZ=    -2.7201   YZ=     2.9748   ZZ=    36.4753
   Eigenvalues:    26.3465    31.1127    39.0043
     24  H    Isotropic =    34.8095   Anisotropy =    18.0576
   XX=    32.1367   YX=    -4.1168   ZX=     7.8130
   XY=    -3.6590   YY=    34.8724   ZY=    -4.3246
   XZ=     8.3679   YZ=    -6.1653   ZZ=    37.4195
   Eigenvalues:    26.2666    31.3141    46.8479
     25  H    Isotropic =    32.4923   Anisotropy =    11.7102
   XX=    33.2954   YX=    -3.0460   ZX=     2.4164
   XY=    -2.9546   YY=    34.5137   ZY=    -5.7933
   XZ=     2.7977   YZ=    -5.1601   ZZ=    29.6678
   Eigenvalues:    26.0516    31.1262    40.2991
     26  H    Isotropic =    32.7178   Anisotropy =     9.5490
   XX=    30.3875   YX=    -2.3032   ZX=     0.0897
   XY=    -2.3819   YY=    30.7807   ZY=    -3.9655
   XZ=     0.2618   YZ=    -3.9583   ZZ=    36.9850
   Eigenvalues:    27.4095    31.6600    39.0838
     27  H    Isotropic =    32.1427   Anisotropy =     9.6143
   XX=    31.2133   YX=     3.8763   ZX=    -1.5867
   XY=     3.5789   YY=    34.3015   ZY=     4.6024
   XZ=    -1.1748   YZ=     5.1418   ZZ=    30.9134
   Eigenvalues:    25.4386    32.4373    38.5522
     28  H    Isotropic =    32.5889   Anisotropy =    14.8527
   XX=    38.1013   YX=    -2.8061   ZX=    -5.7482
   XY=    -2.6116   YY=    27.9647   ZY=     2.9073
   XZ=    -5.7119   YZ=     3.0659   ZZ=    31.7007
   Eigenvalues:    26.2831    28.9929    42.4907
     29  H    Isotropic =    32.5732   Anisotropy =     9.7428
   XX=    31.8263   YX=     1.7110   ZX=     0.3477
   XY=     1.7629   YY=    37.1297   ZY=    -4.1028
   XZ=     0.3692   YZ=    -3.9831   ZZ=    28.7636
   Eigenvalues:    26.9242    31.7270    39.0683
     30  H    Isotropic =    32.6361   Anisotropy =    12.7668
   XX=    31.3377   YX=     2.8578   ZX=     2.8820
   XY=     2.7972   YY=    29.5463   ZY=     5.3296
   XZ=     2.8202   YZ=     4.9488   ZZ=    37.0242
   Eigenvalues:    26.5235    30.2375    41.1473
     31  H    Isotropic =    32.4762   Anisotropy =    14.6240
   XX=    42.0951   YX=     0.5504   ZX=    -1.2417
   XY=     0.8227   YY=    27.9919   ZY=     1.0343
   XZ=    -1.2695   YZ=     1.2912   ZZ=    27.3415
   Eigenvalues:    26.3321    28.8709    42.2255
 End of Minotr Frequency-dependent properties file   721 does not exist.
 End of Minotr Frequency-dependent properties file   722 does not exist.

 **********************************************************************

            Population analysis using the SCF density.

 **********************************************************************

 Orbital symmetries:
       Occupied  (A) (A) (A) (A) (A) (A) (A) (A) (A) (A) (A) (A)
                 (A) (A) (A) (A) (A) (A) (A) (A) (A) (A) (A) (A)
                 (A) (A) (A) (A) (A) (A) (A) (A) (A) (A) (A) (A)
                 (A) (A) (A) (A) (A) (A) (A) (A)
       Virtual   (A) (A) (A) (A) (A) (A) (A) (A) (A) (A) (A) (A)
                 (A) (A) (A) (A) (A) (A) (A) (A) (A) (A) (A) (A)
                 (A) (A) (A) (A) (A) (A) (A)
 The electronic state is 1-A.
 Alpha  occ. eigenvalues --  -20.24052 -11.08454 -11.04754 -11.04588 -11.04089
 Alpha  occ. eigenvalues --  -11.03730 -11.03667 -11.03298 -11.03074 -11.03064
 Alpha  occ. eigenvalues --  -11.02483  -1.28016  -1.08171  -1.03552  -0.96784
 Alpha  occ. eigenvalues --   -0.94489  -0.88724  -0.87889  -0.80202  -0.78755
 Alpha  occ. eigenvalues --   -0.72688  -0.67229  -0.63607  -0.61340  -0.60138
 Alpha  occ. eigenvalues --   -0.57267  -0.55729  -0.54292  -0.52883  -0.52330
 Alpha  occ. eigenvalues --   -0.51119  -0.50132  -0.49312  -0.48143  -0.47003
 Alpha  occ. eigenvalues --   -0.45625  -0.43007  -0.42665  -0.41885  -0.41814
 Alpha  occ. eigenvalues --   -0.39822  -0.38202  -0.36477  -0.33011
 Alpha virt. eigenvalues --    0.52284   0.55803   0.57819   0.59360   0.60201
 Alpha virt. eigenvalues --    0.61130   0.61961   0.64647   0.66180   0.66863
 Alpha virt. eigenvalues --    0.67929   0.68779   0.70545   0.71469   0.71908
 Alpha virt. eigenvalues --    0.72466   0.73762   0.74058   0.75562   0.75877
 Alpha virt. eigenvalues --    0.76582   0.78041   0.79100   0.79508   0.79696
 Alpha virt. eigenvalues --    0.81104   0.81706   0.83628   0.85694   0.86140
 Alpha virt. eigenvalues --    0.87551
          Condensed to atoms (all electrons):
              1          2          3          4          5          6
     1  C    4.741683   0.364794   0.000046   0.000759   0.000012  -0.024971
     2  C    0.364794   4.746133  -0.019718  -0.022606  -0.002525   0.362393
     3  C    0.000046  -0.019718   4.743003  -0.020383   0.351082  -0.007733
     4  C    0.000759  -0.022606  -0.020383   4.756193   0.359150   0.363437
     5  C    0.000012  -0.002525   0.351082   0.359150   4.800438  -0.021121
     6  C   -0.024971   0.362393  -0.007733   0.363437  -0.021121   4.756257
     7  C   -0.024293   0.360799   0.360211  -0.006598  -0.022452  -0.021835
     8  O   -0.000001   0.000221   0.268205   0.000194  -0.016671   0.000007
     9  C    0.000000   0.000012  -0.017477  -0.019398   0.357862   0.000590
    10  C    0.000000   0.000009  -0.000929  -0.001748  -0.020086   0.000006
    11  C    0.000000   0.000000   0.000555  -0.002397  -0.021665   0.000013
    12  H    0.382076  -0.020751  -0.000008   0.000013   0.000007  -0.002301
    13  H    0.382623  -0.020174   0.000016  -0.000018  -0.000001   0.001301
    14  H    0.382247  -0.020156  -0.000012   0.000015   0.000000  -0.002253
    15  H   -0.024959   0.383712   0.001200  -0.000375   0.000015  -0.023632
    16  H    0.000058  -0.002145   0.376754   0.000517  -0.026437  -0.000219
    17  H   -0.000017   0.001283   0.001114   0.383730  -0.021080  -0.021812
    18  H    0.000008  -0.002437  -0.000005   0.381360  -0.021332  -0.023614
    19  H    0.000001   0.000021  -0.026679  -0.024744   0.379501  -0.000325
    20  H   -0.004618  -0.021776  -0.000280  -0.023462  -0.002284   0.381467
    21  H   -0.000334  -0.021435   0.000068  -0.021059   0.001203   0.383365
    22  H   -0.005590  -0.019855  -0.020771   0.000053   0.001141   0.001050
    23  H    0.001319  -0.021689  -0.023152   0.000028  -0.002245   0.000455
    24  H    0.000000  -0.000039  -0.041189  -0.000007  -0.001841  -0.000001
    25  H    0.000000  -0.000001  -0.001500   0.001103  -0.023162  -0.000013
    26  H    0.000000   0.000002   0.000020  -0.000625  -0.001537  -0.000007
    27  H    0.000000   0.000003  -0.000106   0.000041  -0.001469  -0.000001
    28  H    0.000000   0.000000   0.000000   0.000015   0.001107   0.000000
    29  H    0.000000   0.000000  -0.000002  -0.000628  -0.001337   0.000006
    30  H    0.000000   0.000000   0.000014  -0.000095  -0.002410  -0.000002
    31  H    0.000000   0.000000  -0.000012   0.000024   0.001145   0.000000
              7          8          9         10         11         12
     1  C   -0.024293  -0.000001   0.000000   0.000000   0.000000   0.382076
     2  C    0.360799   0.000221   0.000012   0.000009   0.000000  -0.020751
     3  C    0.360211   0.268205  -0.017477  -0.000929   0.000555  -0.000008
     4  C   -0.006598   0.000194  -0.019398  -0.001748  -0.002397   0.000013
     5  C   -0.022452  -0.016671   0.357862  -0.020086  -0.021665   0.000007
     6  C   -0.021835   0.000007   0.000590   0.000006   0.000013  -0.002301
     7  C    4.769274  -0.018104   0.000055  -0.000388  -0.000004  -0.001972
     8  O   -0.018104   7.842324  -0.001732  -0.000463   0.000003  -0.000002
     9  C    0.000055  -0.001732   4.735816   0.364156   0.364149   0.000000
    10  C   -0.000388  -0.000463   0.364156   4.743948  -0.026262   0.000000
    11  C   -0.000004   0.000003   0.364149  -0.026262   4.743724   0.000000
    12  H   -0.001972  -0.000002   0.000000   0.000000   0.000000   0.632437
    13  H   -0.002340   0.000000   0.000000   0.000000   0.000000  -0.021814
    14  H    0.001293   0.000000   0.000000   0.000000   0.000000  -0.021698
    15  H   -0.024672  -0.000004   0.000000   0.000001   0.000000   0.001937
    16  H   -0.026716  -0.020004   0.001037  -0.000010  -0.000013   0.000048
    17  H    0.000041  -0.000003  -0.000084   0.000033  -0.000539  -0.000001
    18  H   -0.000055  -0.000002  -0.003429  -0.000590  -0.000204  -0.000001
    19  H    0.001337   0.000225  -0.025342   0.001207  -0.002573   0.000000
    20  H   -0.000107   0.000001   0.000005  -0.000001   0.000000   0.000337
    21  H    0.001159   0.000000  -0.000013   0.000000   0.000000   0.000012
    22  H    0.381881  -0.000668  -0.000012   0.000005   0.000000   0.000036
    23  H    0.381134  -0.000371   0.000105  -0.000718  -0.000003   0.000002
    24  H    0.002630   0.257854  -0.000576   0.000065  -0.000004   0.000001
    25  H    0.000003  -0.000258   0.381615  -0.024630  -0.025255   0.000000
    26  H   -0.000063   0.000009  -0.020394   0.381991  -0.001998   0.000000
    27  H   -0.000680   0.000353  -0.019461   0.383161   0.001321   0.000000
    28  H    0.000008   0.000007  -0.020042   0.381886  -0.002816   0.000000
    29  H    0.000000   0.000000  -0.020226  -0.002458   0.382502   0.000000
    30  H    0.000000   0.000000  -0.020278   0.001323   0.381803   0.000000
    31  H    0.000000   0.000000  -0.019810  -0.002103   0.382777   0.000000
             13         14         15         16         17         18
     1  C    0.382623   0.382247  -0.024959   0.000058  -0.000017   0.000008
     2  C   -0.020174  -0.020156   0.383712  -0.002145   0.001283  -0.002437
     3  C    0.000016  -0.000012   0.001200   0.376754   0.001114  -0.000005
     4  C   -0.000018   0.000015  -0.000375   0.000517   0.383730   0.381360
     5  C   -0.000001   0.000000   0.000015  -0.026437  -0.021080  -0.021332
     6  C    0.001301  -0.002253  -0.023632  -0.000219  -0.021812  -0.023614
     7  C   -0.002340   0.001293  -0.024672  -0.026716   0.000041  -0.000055
     8  O    0.000000   0.000000  -0.000004  -0.020004  -0.000003  -0.000002
     9  C    0.000000   0.000000   0.000000   0.001037  -0.000084  -0.003429
    10  C    0.000000   0.000000   0.000001  -0.000010   0.000033  -0.000590
    11  C    0.000000   0.000000   0.000000  -0.000013  -0.000539  -0.000204
    12  H   -0.021814  -0.021698   0.001937   0.000048  -0.000001  -0.000001
    13  H    0.630530  -0.021724  -0.002594   0.000008   0.000000   0.000000
    14  H   -0.021724   0.631166  -0.002202  -0.000010  -0.000001   0.000000
    15  H   -0.002594  -0.002202   0.651567   0.000001  -0.000017   0.000329
    16  H    0.000008  -0.000010   0.000001   0.671835  -0.000034  -0.000023
    17  H    0.000000  -0.000001  -0.000017  -0.000034   0.640755  -0.023841
    18  H    0.000000   0.000000   0.000329  -0.000023  -0.023841   0.643248
    19  H    0.000000   0.000000   0.000002  -0.006857  -0.005680   0.001913
    20  H    0.000058  -0.000087   0.001852  -0.000567  -0.002148   0.002031
    21  H   -0.000017   0.000167  -0.005004   0.000009  -0.002510  -0.002183
    22  H    0.000049   0.000084   0.000688  -0.002220   0.000001   0.000000
    23  H    0.000053  -0.000038  -0.006768   0.002052   0.000002  -0.000323
    24  H    0.000000   0.000000   0.000001  -0.004423   0.000000   0.000000
    25  H    0.000000   0.000000   0.000000   0.000035  -0.000015   0.000023
    26  H    0.000000   0.000000   0.000001  -0.000002   0.000020  -0.000446
    27  H    0.000000   0.000000   0.000001   0.000006  -0.000001   0.000032
    28  H    0.000000   0.000000   0.000000   0.000001  -0.000001  -0.000018
    29  H    0.000000   0.000000   0.000000   0.000000  -0.000694  -0.000103
    30  H    0.000000   0.000000   0.000000  -0.000001  -0.000040   0.000025
    31  H    0.000000   0.000000   0.000000   0.000000   0.000015  -0.000008
             19         20         21         22         23         24
     1  C    0.000001  -0.004618  -0.000334  -0.005590   0.001319   0.000000
     2  C    0.000021  -0.021776  -0.021435  -0.019855  -0.021689  -0.000039
     3  C   -0.026679  -0.000280   0.000068  -0.020771  -0.023152  -0.041189
     4  C   -0.024744  -0.023462  -0.021059   0.000053   0.000028  -0.000007
     5  C    0.379501  -0.002284   0.001203   0.001141  -0.002245  -0.001841
     6  C   -0.000325   0.381467   0.383365   0.001050   0.000455  -0.000001
     7  C    0.001337  -0.000107   0.001159   0.381881   0.381134   0.002630
     8  O    0.000225   0.000001   0.000000  -0.000668  -0.000371   0.257854
     9  C   -0.025342   0.000005  -0.000013  -0.000012   0.000105  -0.000576
    10  C    0.001207  -0.000001   0.000000   0.000005  -0.000718   0.000065
    11  C   -0.002573   0.000000   0.000000   0.000000  -0.000003  -0.000004
    12  H    0.000000   0.000337   0.000012   0.000036   0.000002   0.000001
    13  H    0.000000   0.000058  -0.000017   0.000049   0.000053   0.000000
    14  H    0.000000  -0.000087   0.000167   0.000084  -0.000038   0.000000
    15  H    0.000002   0.001852  -0.005004   0.000688  -0.006768   0.000001
    16  H   -0.006857  -0.000567   0.000009  -0.002220   0.002052  -0.004423
    17  H   -0.005680  -0.002148  -0.002510   0.000001   0.000002   0.000000
    18  H    0.001913   0.002031  -0.002183   0.000000  -0.000323   0.000000
    19  H    0.671543   0.000369  -0.000018  -0.000036   0.000006   0.000256
    20  H    0.000369   0.646239  -0.023867  -0.000013  -0.000024   0.000001
    21  H   -0.000018  -0.023867   0.638908  -0.000025  -0.000020   0.000000
    22  H   -0.000036  -0.000013  -0.000025   0.628901  -0.024615   0.000037
    23  H    0.000006  -0.000024  -0.000020  -0.024615   0.639974  -0.000010
    24  H    0.000256   0.000001   0.000000   0.000037  -0.000010   0.610340
    25  H   -0.002971  -0.000001   0.000000  -0.000001   0.000007  -0.000610
    26  H   -0.000003   0.000000   0.000001   0.000001  -0.000096  -0.000002
    27  H    0.000013   0.000000   0.000000   0.000018  -0.000469  -0.000043
    28  H   -0.000032   0.000000   0.000000   0.000000   0.000013   0.000000
    29  H    0.000018   0.000000   0.000001   0.000000   0.000000   0.000000
    30  H    0.000290   0.000000   0.000000   0.000000   0.000000   0.000000
    31  H    0.000021   0.000000   0.000000   0.000000   0.000000   0.000001
             25         26         27         28         29         30
     1  C    0.000000   0.000000   0.000000   0.000000   0.000000   0.000000
     2  C   -0.000001   0.000002   0.000003   0.000000   0.000000   0.000000
     3  C   -0.001500   0.000020  -0.000106   0.000000  -0.000002   0.000014
     4  C    0.001103  -0.000625   0.000041   0.000015  -0.000628  -0.000095
     5  C   -0.023162  -0.001537  -0.001469   0.001107  -0.001337  -0.002410
     6  C   -0.000013  -0.000007  -0.000001   0.000000   0.000006  -0.000002
     7  C    0.000003  -0.000063  -0.000680   0.000008   0.000000   0.000000
     8  O   -0.000258   0.000009   0.000353   0.000007   0.000000   0.000000
     9  C    0.381615  -0.020394  -0.019461  -0.020042  -0.020226  -0.020278
    10  C   -0.024630   0.381991   0.383161   0.381886  -0.002458   0.001323
    11  C   -0.025255  -0.001998   0.001321  -0.002816   0.382502   0.381803
    12  H    0.000000   0.000000   0.000000   0.000000   0.000000   0.000000
    13  H    0.000000   0.000000   0.000000   0.000000   0.000000   0.000000
    14  H    0.000000   0.000000   0.000000   0.000000   0.000000   0.000000
    15  H    0.000000   0.000001   0.000001   0.000000   0.000000   0.000000
    16  H    0.000035  -0.000002   0.000006   0.000001   0.000000  -0.000001
    17  H   -0.000015   0.000020  -0.000001  -0.000001  -0.000694  -0.000040
    18  H    0.000023  -0.000446   0.000032  -0.000018  -0.000103   0.000025
    19  H   -0.002971  -0.000003   0.000013  -0.000032   0.000018   0.000290
    20  H   -0.000001   0.000000   0.000000   0.000000   0.000000   0.000000
    21  H    0.000000   0.000001   0.000000   0.000000   0.000001   0.000000
    22  H   -0.000001   0.000001   0.000018   0.000000   0.000000   0.000000
    23  H    0.000007  -0.000096  -0.000469   0.000013   0.000000   0.000000
    24  H   -0.000610  -0.000002  -0.000043   0.000000   0.000000   0.000000
    25  H    0.655808   0.001909  -0.002448  -0.002318   0.001936  -0.001912
    26  H    0.001909   0.634045  -0.021668  -0.022100   0.000349   0.000006
    27  H   -0.002448  -0.021668   0.617375  -0.021859   0.000014  -0.000037
    28  H   -0.002318  -0.022100  -0.021859   0.633084  -0.000025   0.000038
    29  H    0.001936   0.000349   0.000014  -0.000025   0.629752  -0.021620
    30  H   -0.001912   0.000006  -0.000037   0.000038  -0.021620   0.633521
    31  H   -0.003064  -0.000002   0.000023   0.000088  -0.022059  -0.021746
             31
     1  C    0.000000
     2  C    0.000000
     3  C   -0.000012
     4  C    0.000024
     5  C    0.001145
     6  C    0.000000
     7  C    0.000000
     8  O    0.000000
     9  C   -0.019810
    10  C   -0.002103
    11  C    0.382777
    12  H    0.000000
    13  H    0.000000
    14  H    0.000000
    15  H    0.000000
    16  H    0.000000
    17  H    0.000015
    18  H   -0.000008
    19  H    0.000021
    20  H    0.000000
    21  H    0.000000
    22  H    0.000000
    23  H    0.000000
    24  H    0.000001
    25  H   -0.003064
    26  H   -0.000002
    27  H    0.000023
    28  H    0.000088
    29  H   -0.022059
    30  H   -0.021746
    31  H    0.630119
 Mulliken atomic charges:
              1
     1  C   -0.170843
     2  C   -0.024073
     3  C    0.077670
     4  C   -0.102487
     5  C   -0.043007
     6  C   -0.100504
     7  C   -0.109546
     8  O   -0.311119
     9  C   -0.017127
    10  C   -0.177407
    11  C   -0.173116
    12  H    0.051640
    13  H    0.054047
    14  H    0.053209
    15  H    0.048919
    16  H    0.037319
    17  H    0.051524
    18  H    0.049643
    19  H    0.038537
    20  H    0.046874
    21  H    0.051592
    22  H    0.059863
    23  H    0.055393
    24  H    0.177560
    25  H    0.045719
    26  H    0.050589
    27  H    0.065879
    28  H    0.052964
    29  H    0.054576
    30  H    0.051121
    31  H    0.054590
 Sum of Mulliken atomic charges =   0.00000
 Mulliken charges with hydrogens summed into heavy atoms:
              1
     1  C   -0.011947
     2  C    0.024846
     3  C    0.114989
     4  C   -0.001320
     5  C   -0.004470
     6  C   -0.002037
     7  C    0.005710
     8  O   -0.133559
     9  C    0.028592
    10  C   -0.007976
    11  C   -0.012829
 Sum of Mulliken charges with hydrogens summed into heavy atoms =   0.00000
 Electronic spatial extent (au):  <R**2>=           2074.8913
 Charge=              0.0000 electrons
 Dipole moment (field-independent basis, Debye):
    X=             -0.0999    Y=             -1.0049    Z=             -0.9154  Tot=              1.3629
 Quadrupole moment (field-independent basis, Debye-Ang):
   XX=            -67.4130   YY=            -71.2928   ZZ=            -65.0861
   XY=             -0.7241   XZ=              1.3249   YZ=             -2.1151
 Traceless Quadrupole moment (field-independent basis, Debye-Ang):
   XX=              0.5176   YY=             -3.3622   ZZ=              2.8445
   XY=             -0.7241   XZ=              1.3249   YZ=             -2.1151
 Octapole moment (field-independent basis, Debye-Ang**2):
  XXX=             -6.2724  YYY=              2.0171  ZZZ=             -7.9934  XYY=             -0.3188
  XXY=              7.6040  XXZ=             -0.9818  XZZ=             -1.8893  YZZ=              8.3508
  YYZ=             -4.1017  XYZ=              2.8138
 Hexadecapole moment (field-independent basis, Debye-Ang**3):
 XXXX=          -1761.1786 YYYY=           -619.7959 ZZZZ=           -286.7818 XXXY=            -15.1555
 XXXZ=              2.9698 YYYX=            -10.3061 YYYZ=            -16.4687 ZZZX=              6.4316
 ZZZY=            -16.6052 XXYY=           -386.2115 XXZZ=           -339.5971 YYZZ=           -136.8736
 XXYZ=             -5.5504 YYXZ=              8.7377 ZZXY=             -4.6435
 N-N= 6.968690161525D+02 E-N=-2.465744234742D+03  KE= 4.555374748392D+02
 ******************************Gaussian NBO Version 3.1******************************
             N A T U R A L   A T O M I C   O R B I T A L   A N D
          N A T U R A L   B O N D   O R B I T A L   A N A L Y S I S
 ******************************Gaussian NBO Version 3.1******************************
       /RESON  / : Allow strongly delocalized NBO set
       /NLMO   / : Form Natural Localized Molecular Orbitals
       /NMR /    : Analyze NMR Sheilding Tensor 

 Analyzing the SCF density

 Job title: comment                                                         

 Storage needed:     19864 in NPA,     23691 in NBO,     45933 in NLMO (  33549317 available)


 NATURAL POPULATIONS:  Natural atomic orbital occupancies 
                                                          
   NAO  Atom  No  lang   Type(AO)    Occupancy      Energy
 ----------------------------------------------------------
     1    C    1  S      Cor( 1S)     1.99998     -10.96422
     2    C    1  S      Val( 2S)     1.08071      -0.18150
     3    C    1  px     Val( 2p)     0.99678       0.08776
     4    C    1  py     Val( 2p)     1.02633       0.08517
     5    C    1  pz     Val( 2p)     1.02217       0.08616

     6    C    2  S      Cor( 1S)     1.99997     -10.98895
     7    C    2  S      Val( 2S)     1.08158      -0.19310
     8    C    2  px     Val( 2p)     0.95450       0.10995
     9    C    2  py     Val( 2p)     0.95615       0.11132
    10    C    2  pz     Val( 2p)     0.99269       0.10230

    11    C    3  S      Cor( 1S)     1.99989     -11.03391
    12    C    3  S      Val( 2S)     1.08727      -0.21552
    13    C    3  px     Val( 2p)     0.93492       0.09565
    14    C    3  py     Val( 2p)     0.84232       0.12730
    15    C    3  pz     Val( 2p)     0.99019       0.08275

    16    C    4  S      Cor( 1S)     1.99996     -10.97515
    17    C    4  S      Val( 2S)     1.08418      -0.18923
    18    C    4  px     Val( 2p)     0.97683       0.09794
    19    C    4  py     Val( 2p)     0.99034       0.09374
    20    C    4  pz     Val( 2p)     1.01364       0.09354

    21    C    5  S      Cor( 1S)     1.99995     -10.98719
    22    C    5  S      Val( 2S)     1.10680      -0.21471
    23    C    5  px     Val( 2p)     0.95881       0.10842
    24    C    5  py     Val( 2p)     0.96236       0.10330
    25    C    5  pz     Val( 2p)     0.99328       0.09507

    26    C    6  S      Cor( 1S)     1.99996     -10.97536
    27    C    6  S      Val( 2S)     1.08366      -0.18923
    28    C    6  px     Val( 2p)     0.97607       0.09799
    29    C    6  py     Val( 2p)     0.99806       0.09192
    30    C    6  pz     Val( 2p)     1.00507       0.09454

    31    C    7  S      Cor( 1S)     1.99996     -10.97156
    32    C    7  S      Val( 2S)     1.09077      -0.19166
    33    C    7  px     Val( 2p)     1.00184       0.09152
    34    C    7  py     Val( 2p)     0.99468       0.09893
    35    C    7  pz     Val( 2p)     0.99972       0.09389

    36    O    8  S      Cor( 1S)     1.99999     -20.14367
    37    O    8  S      Val( 2S)     1.74867      -0.99991
    38    O    8  px     Val( 2p)     1.64826      -0.23657
    39    O    8  py     Val( 2p)     1.43450      -0.15261
    40    O    8  pz     Val( 2p)     1.50041      -0.18795

    41    C    9  S      Cor( 1S)     1.99996     -10.99172
    42    C    9  S      Val( 2S)     1.08405      -0.19527
    43    C    9  px     Val( 2p)     0.95307       0.11061
    44    C    9  py     Val( 2p)     0.97470       0.10661
    45    C    9  pz     Val( 2p)     0.96391       0.11126

    46    C   10  S      Cor( 1S)     1.99997     -10.95840
    47    C   10  S      Val( 2S)     1.07981      -0.17542
    48    C   10  px     Val( 2p)     1.03264       0.08655
    49    C   10  py     Val( 2p)     1.03056       0.08957
    50    C   10  pz     Val( 2p)     0.99118       0.09586

    51    C   11  S      Cor( 1S)     1.99997     -10.96463
    52    C   11  S      Val( 2S)     1.08136      -0.18282
    53    C   11  px     Val( 2p)     1.01445       0.08406
    54    C   11  py     Val( 2p)     1.00755       0.08688
    55    C   11  pz     Val( 2p)     1.02550       0.08545

    56    H   12  S      Val( 1S)     0.96565       0.07342

    57    H   13  S      Val( 1S)     0.96341       0.07606

    58    H   14  S      Val( 1S)     0.96414       0.07441

    59    H   15  S      Val( 1S)     0.97554       0.06752

    60    H   16  S      Val( 1S)     0.99811       0.04703

    61    H   17  S      Val( 1S)     0.96934       0.07099

    62    H   18  S      Val( 1S)     0.97171       0.07270

    63    H   19  S      Val( 1S)     0.98651       0.05793

    64    H   20  S      Val( 1S)     0.97385       0.06726

    65    H   21  S      Val( 1S)     0.96905       0.06986

    66    H   22  S      Val( 1S)     0.96103       0.07991

    67    H   23  S      Val( 1S)     0.96571       0.07994

    68    H   24  S      Val( 1S)     0.80977       0.07460

    69    H   25  S      Val( 1S)     0.97946       0.06537

    70    H   26  S      Val( 1S)     0.96638       0.07919

    71    H   27  S      Val( 1S)     0.95271       0.09352

    72    H   28  S      Val( 1S)     0.96373       0.07890

    73    H   29  S      Val( 1S)     0.96313       0.07598

    74    H   30  S      Val( 1S)     0.96617       0.07282

    75    H   31  S      Val( 1S)     0.96274       0.07482


 Summary of Natural Population Analysis:                  
                                                          
                                       Natural Population 
                Natural  -----------------------------------------------
    Atom  No    Charge         Core      Valence    Rydberg      Total
 -----------------------------------------------------------------------
      C    1   -0.12597      1.99998     4.12599    0.00000     6.12597
      C    2    0.01511      1.99997     3.98492    0.00000     5.98489
      C    3    0.14540      1.99989     3.85471    0.00000     5.85460
      C    4   -0.06494      1.99996     4.06498    0.00000     6.06494
      C    5   -0.02119      1.99995     4.02124    0.00000     6.02119
      C    6   -0.06282      1.99996     4.06286    0.00000     6.06282
      C    7   -0.08696      1.99996     4.08700    0.00000     6.08696
      O    8   -0.33182      1.99999     6.33183    0.00000     8.33182
      C    9    0.02431      1.99996     3.97573    0.00000     5.97569
      C   10   -0.13416      1.99997     4.13419    0.00000     6.13416
      C   11   -0.12884      1.99997     4.12887    0.00000     6.12884
      H   12    0.03435      0.00000     0.96565    0.00000     0.96565
      H   13    0.03659      0.00000     0.96341    0.00000     0.96341
      H   14    0.03586      0.00000     0.96414    0.00000     0.96414
      H   15    0.02446      0.00000     0.97554    0.00000     0.97554
      H   16    0.00189      0.00000     0.99811    0.00000     0.99811
      H   17    0.03066      0.00000     0.96934    0.00000     0.96934
      H   18    0.02829      0.00000     0.97171    0.00000     0.97171
      H   19    0.01349      0.00000     0.98651    0.00000     0.98651
      H   20    0.02615      0.00000     0.97385    0.00000     0.97385
      H   21    0.03095      0.00000     0.96905    0.00000     0.96905
      H   22    0.03897      0.00000     0.96103    0.00000     0.96103
      H   23    0.03429      0.00000     0.96571    0.00000     0.96571
      H   24    0.19023      0.00000     0.80977    0.00000     0.80977
      H   25    0.02054      0.00000     0.97946    0.00000     0.97946
      H   26    0.03362      0.00000     0.96638    0.00000     0.96638
      H   27    0.04729      0.00000     0.95271    0.00000     0.95271
      H   28    0.03627      0.00000     0.96373    0.00000     0.96373
      H   29    0.03687      0.00000     0.96313    0.00000     0.96313
      H   30    0.03383      0.00000     0.96617    0.00000     0.96617
      H   31    0.03726      0.00000     0.96274    0.00000     0.96274
 =======================================================================
   * Total *    0.00000     21.99954    66.00046    0.00000    88.00000

                                 Natural Population      
 --------------------------------------------------------
   Core                      21.99954 ( 99.9979% of  22)
   Valence                   66.00046 (100.0007% of  66)
   Natural Minimal Basis     88.00000 (100.0000% of  88)
   Natural Rydberg Basis      0.00000 (  0.0000% of  88)
 --------------------------------------------------------

    Atom  No          Natural Electron Configuration
 ----------------------------------------------------------------------------
      C    1      [core]2S( 1.08)2p( 3.05)
      C    2      [core]2S( 1.08)2p( 2.90)
      C    3      [core]2S( 1.09)2p( 2.77)
      C    4      [core]2S( 1.08)2p( 2.98)
      C    5      [core]2S( 1.11)2p( 2.91)
      C    6      [core]2S( 1.08)2p( 2.98)
      C    7      [core]2S( 1.09)2p( 3.00)
      O    8      [core]2S( 1.75)2p( 4.58)
      C    9      [core]2S( 1.08)2p( 2.89)
      C   10      [core]2S( 1.08)2p( 3.05)
      C   11      [core]2S( 1.08)2p( 3.05)
      H   12            1S( 0.97)
      H   13            1S( 0.96)
      H   14            1S( 0.96)
      H   15            1S( 0.98)
      H   16            1S( 1.00)
      H   17            1S( 0.97)
      H   18            1S( 0.97)
      H   19            1S( 0.99)
      H   20            1S( 0.97)
      H   21            1S( 0.97)
      H   22            1S( 0.96)
      H   23            1S( 0.97)
      H   24            1S( 0.81)
      H   25            1S( 0.98)
      H   26            1S( 0.97)
      H   27            1S( 0.95)
      H   28            1S( 0.96)
      H   29            1S( 0.96)
      H   30            1S( 0.97)
      H   31            1S( 0.96)


 NATURAL BOND ORBITAL ANALYSIS:

                       Occupancies       Lewis Structure    Low   High
           Occ.    -------------------  -----------------   occ   occ
  Cycle   Thresh.   Lewis   Non-Lewis     CR  BD  3C  LP    (L)   (NL)   Dev
 =============================================================================
   1(1)    1.90    87.64345   0.35655     11  31   0   2     0      0    0.02
 -----------------------------------------------------------------------------

 Structure accepted: No low occupancy Lewis orbitals

 --------------------------------------------------------
   Core                     21.99953 ( 99.998% of  22)
   Valence Lewis            65.64392 ( 99.460% of  66)
  ==================       ============================
   Total Lewis              87.64345 ( 99.595% of  88)
  -----------------------------------------------------
   Valence non-Lewis         0.35655 (  0.405% of  88)
   Rydberg non-Lewis         0.00000 (  0.000% of  88)
  ==================       ============================
   Total non-Lewis           0.35655 (  0.405% of  88)
 --------------------------------------------------------


       (Occupancy)   Bond orbital/ Coefficients/ Hybrids
 ---------------------------------------------------------------------------------
     1. (1.99036) BD ( 1) C   1 - C   2  
                ( 50.90%)   0.7135* C   1 s( 25.72%)p 2.89( 74.28%)
                                            0.0001  0.5072 -0.7867 -0.1576  0.3148
                ( 49.10%)   0.7007* C   2 s( 24.90%)p 3.02( 75.10%)
                                            0.0000  0.4990  0.7781  0.1712 -0.3409
     2. (1.99519) BD ( 1) C   1 - H  12  
                ( 51.75%)   0.7194* C   1 s( 24.82%)p 3.03( 75.18%)
                                            0.0000  0.4982 -0.0631  0.2932 -0.8136
                ( 48.25%)   0.6946* H  12 s(100.00%)
                                            1.0000
     3. (1.99492) BD ( 1) C   1 - H  13  
                ( 51.84%)   0.7200* C   1 s( 24.72%)p 3.05( 75.28%)
                                            0.0000  0.4972  0.3965  0.5972  0.4889
                ( 48.16%)   0.6940* H  13 s(100.00%)
                                            1.0000
     4. (1.99505) BD ( 1) C   1 - H  14  
                ( 51.81%)   0.7198* C   1 s( 24.74%)p 3.04( 75.26%)
                                            0.0000  0.4974  0.4690 -0.7298  0.0052
                ( 48.19%)   0.6942* H  14 s(100.00%)
                                            1.0000
     5. (1.98517) BD ( 1) C   2 - C   6  
                ( 49.67%)   0.7048* C   2 s( 25.25%)p 2.96( 74.75%)
                                            0.0000  0.5025 -0.3850 -0.6248 -0.4570
                ( 50.33%)   0.7094* C   6 s( 25.26%)p 2.96( 74.74%)
                                            0.0001  0.5026  0.3619  0.6514  0.4383
     6. (1.98327) BD ( 1) C   2 - C   7  
                ( 49.42%)   0.7030* C   2 s( 25.28%)p 2.96( 74.72%)
                                            0.0001  0.5028 -0.4861  0.7147 -0.0146
                ( 50.58%)   0.7112* C   7 s( 25.71%)p 2.89( 74.29%)
                                            0.0000  0.5071  0.4800 -0.7145 -0.0447
     7. (1.98622) BD ( 1) C   2 - H  15  
                ( 51.14%)   0.7151* C   2 s( 24.57%)p 3.07( 75.43%)
                                            0.0000  0.4956  0.1001 -0.2638  0.8214
                ( 48.86%)   0.6990* H  15 s(100.00%)
                                            1.0000
     8. (1.98252) BD ( 1) C   3 - C   5  
                ( 49.93%)   0.7066* C   3 s( 25.93%)p 2.86( 74.07%)
                                            0.0001  0.5092 -0.5648 -0.6493  0.0077
                ( 50.07%)   0.7076* C   5 s( 25.38%)p 2.94( 74.62%)
                                            0.0000  0.5037  0.5299  0.6765  0.0882
     9. (1.98811) BD ( 1) C   3 - C   7  
                ( 49.98%)   0.7070* C   3 s( 26.41%)p 2.79( 73.59%)
                                            0.0000  0.5139  0.5118 -0.0340  0.6876
                ( 50.02%)   0.7072* C   7 s( 25.12%)p 2.98( 74.88%)
                                            0.0001  0.5012 -0.5375  0.0370 -0.6771
    10. (1.98863) BD ( 1) C   3 - O   8  
                ( 41.07%)   0.6409* C   3 s( 22.76%)p 3.39( 77.24%)
                                            0.0000  0.4771 -0.4425  0.7593  0.0104
                ( 58.93%)   0.7677* O   8 s( 16.49%)p 5.06( 83.51%)
                                            0.0000  0.4061  0.3928 -0.8231 -0.0576
    11. (1.98915) BD ( 1) C   3 - H  16  
                ( 50.37%)   0.7097* C   3 s( 24.90%)p 3.02( 75.10%)
                                            0.0000  0.4990  0.4725 -0.0282 -0.7259
                ( 49.63%)   0.7045* H  16 s(100.00%)
                                            1.0000
    12. (1.98456) BD ( 1) C   4 - C   5  
                ( 50.29%)   0.7092* C   4 s( 25.26%)p 2.96( 74.74%)
                                            0.0001  0.5026 -0.3406  0.7281 -0.3181
                ( 49.71%)   0.7050* C   5 s( 25.52%)p 2.92( 74.48%)
                                            0.0000  0.5052  0.3501 -0.6983  0.3669
    13. (1.98923) BD ( 1) C   4 - C   6  
                ( 50.01%)   0.7072* C   4 s( 25.17%)p 2.97( 74.83%)
                                            0.0000  0.5017  0.8581  0.0072 -0.1095
                ( 49.99%)   0.7070* C   6 s( 25.13%)p 2.98( 74.87%)
                                            0.0000  0.5013 -0.8586  0.0193  0.1055
    14. (1.99034) BD ( 1) C   4 - H  17  
                ( 51.50%)   0.7177* C   4 s( 24.89%)p 3.02( 75.11%)
                                            0.0000  0.4989 -0.3386 -0.6829 -0.4124
                ( 48.50%)   0.6964* H  17 s(100.00%)
                                            1.0000
    15. (1.99011) BD ( 1) C   4 - H  18  
                ( 51.46%)   0.7173* C   4 s( 24.68%)p 3.05( 75.32%)
                                            0.0000  0.4968 -0.1819 -0.0581  0.8466
                ( 48.54%)   0.6967* H  18 s(100.00%)
                                            1.0000
    16. (1.97923) BD ( 1) C   5 - C   9  
                ( 50.29%)   0.7092* C   5 s( 25.83%)p 2.87( 74.17%)
                                            0.0001  0.5082 -0.7637  0.1731  0.3584
                ( 49.71%)   0.7050* C   9 s( 25.34%)p 2.95( 74.66%)
                                            0.0001  0.5034  0.8053 -0.1697 -0.2632
    17. (1.98553) BD ( 1) C   5 - H  19  
                ( 50.56%)   0.7111* C   5 s( 23.27%)p 3.30( 76.73%)
                                            0.0000  0.4824 -0.1154 -0.1575 -0.8539
                ( 49.44%)   0.7031* H  19 s(100.00%)
                                            1.0000
    18. (1.99095) BD ( 1) C   6 - H  20  
                ( 51.35%)   0.7166* C   6 s( 24.69%)p 3.05( 75.31%)
                                            0.0000  0.4969  0.1882  0.0796 -0.8434
                ( 48.65%)   0.6975* H  20 s(100.00%)
                                            1.0000
    19. (1.99016) BD ( 1) C   6 - H  21  
                ( 51.51%)   0.7177* C   6 s( 24.93%)p 3.01( 75.07%)
                                            0.0000  0.4993  0.3104 -0.7543  0.2922
                ( 48.49%)   0.6964* H  21 s(100.00%)
                                            1.0000
    20. (1.98932) BD ( 1) C   7 - H  22  
                ( 51.93%)   0.7206* C   7 s( 25.11%)p 2.98( 74.89%)
                                            0.0000  0.5011  0.5108  0.6986  0.0035
                ( 48.07%)   0.6933* H  22 s(100.00%)
                                            1.0000
    21. (1.99032) BD ( 1) C   7 - H  23  
                ( 51.71%)   0.7191* C   7 s( 24.06%)p 3.16( 75.94%)
                                            0.0000  0.4906 -0.4688 -0.0127  0.7345
                ( 48.29%)   0.6949* H  23 s(100.00%)
                                            1.0000
    22. (1.98896) BD ( 1) O   8 - H  24  
                ( 59.49%)   0.7713* O   8 s( 16.60%)p 5.02( 83.40%)
                                            0.0000 -0.4075  0.4735 -0.0297  0.7803
                ( 40.51%)   0.6365* H  24 s(100.00%)
                                           -1.0000
    23. (1.99022) BD ( 1) C   9 - C  10  
                ( 49.22%)   0.7016* C   9 s( 25.37%)p 2.94( 74.63%)
                                            0.0000  0.5037  0.0028  0.2067  0.8388
                ( 50.78%)   0.7126* C  10 s( 25.88%)p 2.86( 74.12%)
                                            0.0001  0.5087  0.0419 -0.2293 -0.8288
    24. (1.98852) BD ( 1) C   9 - C  11  
                ( 49.01%)   0.7001* C   9 s( 24.96%)p 3.01( 75.04%)
                                            0.0000  0.4996 -0.5004 -0.6956 -0.1269
                ( 50.99%)   0.7141* C  11 s( 25.71%)p 2.89( 74.29%)
                                            0.0001  0.5070  0.5366  0.6610  0.1345
    25. (1.98381) BD ( 1) C   9 - H  25  
                ( 50.92%)   0.7136* C   9 s( 24.32%)p 3.11( 75.68%)
                                            0.0000  0.4932 -0.3180  0.6668 -0.4594
                ( 49.08%)   0.7006* H  25 s(100.00%)
                                            1.0000
    26. (1.99448) BD ( 1) C  10 - H  26  
                ( 51.72%)   0.7192* C  10 s( 24.84%)p 3.03( 75.16%)
                                            0.0000  0.4984  0.3149 -0.6361  0.4978
                ( 48.28%)   0.6948* H  26 s(100.00%)
                                            1.0000
    27. (1.99461) BD ( 1) C  10 - H  27  
                ( 52.40%)   0.7239* C  10 s( 24.88%)p 3.02( 75.12%)
                                            0.0000  0.4987  0.4626  0.7214  0.1299
                ( 47.60%)   0.6899* H  27 s(100.00%)
                                            1.0000
    28. (1.99412) BD ( 1) C  10 - H  28  
                ( 51.80%)   0.7197* C  10 s( 24.41%)p 3.10( 75.59%)
                                            0.0000  0.4941 -0.8277  0.1495  0.2200
                ( 48.20%)   0.6943* H  28 s(100.00%)
                                            1.0000
    29. (1.99569) BD ( 1) C  11 - H  29  
                ( 51.90%)   0.7204* C  11 s( 24.89%)p 3.02( 75.11%)
                                            0.0000  0.4989  0.2359 -0.6741  0.4909
                ( 48.10%)   0.6935* H  29 s(100.00%)
                                            1.0000
    30. (1.99513) BD ( 1) C  11 - H  30  
                ( 51.71%)   0.7191* C  11 s( 24.69%)p 3.05( 75.31%)
                                            0.0000  0.4969  0.0257 -0.2320 -0.8359
                ( 48.29%)   0.6949* H  30 s(100.00%)
                                            1.0000
    31. (1.99463) BD ( 1) C  11 - H  31  
                ( 51.86%)   0.7201* C  11 s( 24.71%)p 3.05( 75.29%)
                                            0.0000  0.4971 -0.8098  0.2342  0.2056
                ( 48.14%)   0.6938* H  31 s(100.00%)
                                            1.0000
    32. (1.99997) CR ( 1) C   1           s(100.00%)
                                            1.0000  0.0000  0.0001  0.0000  0.0000
    33. (1.99997) CR ( 1) C   2           s(100.00%)
                                            1.0000  0.0000  0.0000  0.0000  0.0000
    34. (1.99989) CR ( 1) C   3           s(100.00%)
                                            1.0000  0.0000  0.0000  0.0001  0.0000
    35. (1.99996) CR ( 1) C   4           s(100.00%)
                                            1.0000  0.0000  0.0000 -0.0001  0.0000
    36. (1.99995) CR ( 1) C   5           s(100.00%)
                                            1.0000  0.0000  0.0000  0.0000 -0.0001
    37. (1.99996) CR ( 1) C   6           s(100.00%)
                                            1.0000  0.0000  0.0000 -0.0001  0.0000
    38. (1.99995) CR ( 1) C   7           s(100.00%)
                                            1.0000 -0.0001  0.0000  0.0000  0.0000
    39. (1.99999) CR ( 1) O   8           s(100.00%)
                                            1.0000  0.0000  0.0000  0.0000  0.0000
    40. (1.99996) CR ( 1) C   9           s(100.00%)
                                            1.0000  0.0000 -0.0001  0.0000  0.0000
    41. (1.99997) CR ( 1) C  10           s(100.00%)
                                            1.0000  0.0000  0.0000  0.0000  0.0001
    42. (1.99997) CR ( 1) C  11           s(100.00%)
                                            1.0000  0.0000 -0.0001 -0.0001  0.0000
    43. (1.99267) LP ( 1) O   8           s( 66.51%)p 0.50( 33.49%)
                                            0.0000  0.8155 -0.0200  0.3612  0.4517
    44. (1.97273) LP ( 2) O   8           s(  0.40%)p99.99( 99.60%)
                                            0.0000  0.0631  0.7881  0.4373 -0.4287
    45. (0.00969) BD*( 1) C   1 - C   2  
                ( 49.10%)   0.7007* C   1 s( 25.72%)p 2.89( 74.28%)
                                           -0.0001 -0.5072  0.7867  0.1576 -0.3148
                ( 50.90%)  -0.7135* C   2 s( 24.90%)p 3.02( 75.10%)
                                            0.0000 -0.4990 -0.7781 -0.1712  0.3409
    46. (0.00589) BD*( 1) C   1 - H  12  
                ( 48.25%)   0.6946* C   1 s( 24.82%)p 3.03( 75.18%)
                                            0.0000 -0.4982  0.0631 -0.2932  0.8136
                ( 51.75%)  -0.7194* H  12 s(100.00%)
                                           -1.0000
    47. (0.00510) BD*( 1) C   1 - H  13  
                ( 48.16%)   0.6940* C   1 s( 24.72%)p 3.05( 75.28%)
                                            0.0000 -0.4972 -0.3965 -0.5972 -0.4889
                ( 51.84%)  -0.7200* H  13 s(100.00%)
                                           -1.0000
    48. (0.00515) BD*( 1) C   1 - H  14  
                ( 48.19%)   0.6942* C   1 s( 24.74%)p 3.04( 75.26%)
                                            0.0000 -0.4974 -0.4690  0.7298 -0.0052
                ( 51.81%)  -0.7198* H  14 s(100.00%)
                                           -1.0000
    49. (0.01605) BD*( 1) C   2 - C   6  
                ( 50.33%)   0.7094* C   2 s( 25.25%)p 2.96( 74.75%)
                                            0.0000  0.5025 -0.3850 -0.6248 -0.4570
                ( 49.67%)  -0.7048* C   6 s( 25.26%)p 2.96( 74.74%)
                                            0.0001  0.5026  0.3619  0.6514  0.4383
    50. (0.01542) BD*( 1) C   2 - C   7  
                ( 50.58%)   0.7112* C   2 s( 25.28%)p 2.96( 74.72%)
                                            0.0001  0.5028 -0.4861  0.7147 -0.0146
                ( 49.42%)  -0.7030* C   7 s( 25.71%)p 2.89( 74.29%)
                                            0.0000  0.5071  0.4800 -0.7145 -0.0447
    51. (0.00991) BD*( 1) C   2 - H  15  
                ( 48.86%)   0.6990* C   2 s( 24.57%)p 3.07( 75.43%)
                                            0.0000 -0.4956 -0.1001  0.2638 -0.8214
                ( 51.14%)  -0.7151* H  15 s(100.00%)
                                           -1.0000
    52. (0.03697) BD*( 1) C   3 - C   5  
                ( 50.07%)   0.7076* C   3 s( 25.93%)p 2.86( 74.07%)
                                            0.0001  0.5092 -0.5648 -0.6493  0.0077
                ( 49.93%)  -0.7066* C   5 s( 25.38%)p 2.94( 74.62%)
                                            0.0000  0.5037  0.5299  0.6765  0.0882
    53. (0.02185) BD*( 1) C   3 - C   7  
                ( 50.02%)   0.7072* C   3 s( 26.41%)p 2.79( 73.59%)
                                            0.0000  0.5139  0.5118 -0.0340  0.6876
                ( 49.98%)  -0.7070* C   7 s( 25.12%)p 2.98( 74.88%)
                                            0.0001  0.5012 -0.5375  0.0370 -0.6771
    54. (0.02087) BD*( 1) C   3 - O   8  
                ( 58.93%)   0.7677* C   3 s( 22.76%)p 3.39( 77.24%)
                                            0.0000  0.4771 -0.4425  0.7593  0.0104
                ( 41.07%)  -0.6409* O   8 s( 16.49%)p 5.06( 83.51%)
                                            0.0000  0.4061  0.3928 -0.8231 -0.0576
    55. (0.02159) BD*( 1) C   3 - H  16  
                ( 49.63%)   0.7045* C   3 s( 24.90%)p 3.02( 75.10%)
                                            0.0000 -0.4990 -0.4725  0.0282  0.7259
                ( 50.37%)  -0.7097* H  16 s(100.00%)
                                           -1.0000
    56. (0.01686) BD*( 1) C   4 - C   5  
                ( 49.71%)   0.7050* C   4 s( 25.26%)p 2.96( 74.74%)
                                           -0.0001 -0.5026  0.3406 -0.7281  0.3181
                ( 50.29%)  -0.7092* C   5 s( 25.52%)p 2.92( 74.48%)
                                            0.0000 -0.5052 -0.3501  0.6983 -0.3669
    57. (0.01066) BD*( 1) C   4 - C   6  
                ( 49.99%)   0.7070* C   4 s( 25.17%)p 2.97( 74.83%)
                                            0.0000 -0.5017 -0.8581 -0.0072  0.1095
                ( 50.01%)  -0.7072* C   6 s( 25.13%)p 2.98( 74.87%)
                                            0.0000 -0.5013  0.8586 -0.0193 -0.1055
    58. (0.00793) BD*( 1) C   4 - H  17  
                ( 48.50%)   0.6964* C   4 s( 24.89%)p 3.02( 75.11%)
                                            0.0000 -0.4989  0.3386  0.6829  0.4124
                ( 51.50%)  -0.7177* H  17 s(100.00%)
                                           -1.0000
    59. (0.01095) BD*( 1) C   4 - H  18  
                ( 48.54%)   0.6967* C   4 s( 24.68%)p 3.05( 75.32%)
                                            0.0000 -0.4968  0.1819  0.0581 -0.8466
                ( 51.46%)  -0.7173* H  18 s(100.00%)
                                           -1.0000
    60. (0.02209) BD*( 1) C   5 - C   9  
                ( 49.71%)   0.7050* C   5 s( 25.83%)p 2.87( 74.17%)
                                           -0.0001 -0.5082  0.7637 -0.1731 -0.3584
                ( 50.29%)  -0.7092* C   9 s( 25.34%)p 2.95( 74.66%)
                                           -0.0001 -0.5034 -0.8053  0.1697  0.2632
    61. (0.00979) BD*( 1) C   5 - H  19  
                ( 49.44%)   0.7031* C   5 s( 23.27%)p 3.30( 76.73%)
                                            0.0000 -0.4824  0.1154  0.1575  0.8539
                ( 50.56%)  -0.7111* H  19 s(100.00%)
                                           -1.0000
    62. (0.01026) BD*( 1) C   6 - H  20  
                ( 48.65%)   0.6975* C   6 s( 24.69%)p 3.05( 75.31%)
                                            0.0000 -0.4969 -0.1882 -0.0796  0.8434
                ( 51.35%)  -0.7166* H  20 s(100.00%)
                                           -1.0000
    63. (0.00768) BD*( 1) C   6 - H  21  
                ( 48.49%)   0.6964* C   6 s( 24.93%)p 3.01( 75.07%)
                                            0.0000 -0.4993 -0.3104  0.7543 -0.2922
                ( 51.51%)  -0.7177* H  21 s(100.00%)
                                           -1.0000
    64. (0.00907) BD*( 1) C   7 - H  22  
                ( 48.07%)   0.6933* C   7 s( 25.11%)p 2.98( 74.89%)
                                            0.0000 -0.5011 -0.5108 -0.6986 -0.0035
                ( 51.93%)  -0.7206* H  22 s(100.00%)
                                           -1.0000
    65. (0.00903) BD*( 1) C   7 - H  23  
                ( 48.29%)   0.6949* C   7 s( 24.06%)p 3.16( 75.94%)
                                            0.0000 -0.4906  0.4688  0.0127 -0.7345
                ( 51.71%)  -0.7191* H  23 s(100.00%)
                                           -1.0000
    66. (0.00680) BD*( 1) O   8 - H  24  
                ( 40.51%)   0.6365* O   8 s( 16.60%)p 5.02( 83.40%)
                                            0.0000  0.4075 -0.4735  0.0297 -0.7803
                ( 59.49%)  -0.7713* H  24 s(100.00%)
                                            1.0000
    67. (0.01096) BD*( 1) C   9 - C  10  
                ( 50.78%)   0.7126* C   9 s( 25.37%)p 2.94( 74.63%)
                                            0.0000  0.5037  0.0028  0.2067  0.8388
                ( 49.22%)  -0.7016* C  10 s( 25.88%)p 2.86( 74.12%)
                                            0.0001  0.5087  0.0419 -0.2293 -0.8288
    68. (0.01021) BD*( 1) C   9 - C  11  
                ( 50.99%)   0.7141* C   9 s( 24.96%)p 3.01( 75.04%)
                                            0.0000  0.4996 -0.5004 -0.6956 -0.1269
                ( 49.01%)  -0.7001* C  11 s( 25.71%)p 2.89( 74.29%)
                                            0.0001  0.5070  0.5366  0.6610  0.1345
    69. (0.01136) BD*( 1) C   9 - H  25  
                ( 49.08%)   0.7006* C   9 s( 24.32%)p 3.11( 75.68%)
                                            0.0000 -0.4932  0.3180 -0.6668  0.4594
                ( 50.92%)  -0.7136* H  25 s(100.00%)
                                           -1.0000
    70. (0.00669) BD*( 1) C  10 - H  26  
                ( 48.28%)   0.6948* C  10 s( 24.84%)p 3.03( 75.16%)
                                            0.0000 -0.4984 -0.3149  0.6361 -0.4978
                ( 51.72%)  -0.7192* H  26 s(100.00%)
                                           -1.0000
    71. (0.00623) BD*( 1) C  10 - H  27  
                ( 47.60%)   0.6899* C  10 s( 24.88%)p 3.02( 75.12%)
                                            0.0000 -0.4987 -0.4626 -0.7214 -0.1299
                ( 52.40%)  -0.7239* H  27 s(100.00%)
                                           -1.0000
    72. (0.00495) BD*( 1) C  10 - H  28  
                ( 48.20%)   0.6943* C  10 s( 24.41%)p 3.10( 75.59%)
                                            0.0000 -0.4941  0.8277 -0.1495 -0.2200
[...]
   20      -0.0487       -0.4912       0.4426        -1.0287       0.9800
   22      23.3865       12.6280      10.7586         8.9779      14.4087
   39     271.1840       -0.0059     271.1899        -0.0034     271.1874
   43      35.2391        1.0666      34.1725        -2.1942      37.4334
   44       5.6398      -32.4683      38.1082       -34.2543      39.8941
 Sum      361.4366      -10.7006     372.1371       -15.3316     376.7682

 Contributions to Isotropic shielding for atom    9 (   214.6897 ppm):
                         Standard Origin              Atomic Origin
 NLMO      Total    Paramagnetic  Diamagnetic   Paramagnetic  Diamagnetic
   10      -0.0615       -0.4014       0.3399        -1.2955       1.2340
   16       5.5925       -8.8478      14.4403        -2.0459       7.6385
   23      -0.1439       -7.1403       6.9965        -7.7723       7.6285
   24      -1.8529       -4.1909       2.3380        -9.3471       7.4942
   25       6.0128       -0.7760       6.7888        -4.8269      10.8397
   26       0.8449       -0.2695       1.1143        -0.1820       1.0269
   27       0.5401       -0.5885       1.1287        -0.4875       1.0276
   28       0.6013       -0.1259       0.7272        -0.4268       1.0280
   29       1.0662       -0.3469       1.4130         0.0433       1.0228
   30       0.7058       -0.6296       1.3354        -0.3330       1.0388
   31       0.6488       -0.3715       1.0204        -0.3791       1.0280
   40     199.9235       -0.0019     199.9253         0.0026     199.9209
 Sum      213.8776      -23.6902     237.5679       -27.0503     240.9279

 Contributions to Isotropic shielding for atom   10 (   224.2094 ppm):
                         Standard Origin              Atomic Origin
 NLMO      Total    Paramagnetic  Diamagnetic   Paramagnetic  Diamagnetic
   10       0.0512       -0.3036       0.3548        -1.0171       1.0683
   23       3.8642       -8.4592      12.3234        -4.0147       7.8789
   24      -0.3283        0.0087      -0.3370        -1.0097       0.6814
   25       0.3575       -0.1017       0.4591        -0.6451       1.0026
   26       7.0595       -4.5219      11.5815        -4.0287      11.0882
   27       6.6974       -5.6900      12.3875        -4.6185      11.3160
   28       5.9553        3.1671       2.7881        -5.1169      11.0722
   41     200.0738       -0.0020     200.0759         0.0014     200.0725
 Sum      223.7307      -15.9027     239.6334       -20.4494     244.1801

 Contributions to Isotropic shielding for atom   11 (   221.2292 ppm):
                         Standard Origin              Atomic Origin
 NLMO      Total    Paramagnetic  Diamagnetic   Paramagnetic  Diamagnetic
   23      -0.5187        0.0339      -0.5526        -1.2253       0.7066
   24       4.7024      -11.6122      16.3146        -3.2840       7.9864
   25       0.3116        0.1869       0.1247        -0.7269       1.0385
   28      -0.1051       -0.4168       0.3117        -1.0309       0.9259
   29       6.1853       -4.6458      10.8311        -4.9804      11.1658
   30       5.4450       -3.2373       8.6823        -5.6254      11.0704
   31       4.8655        2.3262       2.5393        -6.2586      11.1240
   42     200.0743       -0.0039     200.0783         0.0023     200.0720
 Sum      220.9603      -17.3690     238.3293       -23.1292     244.0895

 Contributions to Isotropic shielding for atom   12 (    32.5885 ppm):
                         Standard Origin              Atomic Origin
 NLMO      Total    Paramagnetic  Diamagnetic   Paramagnetic  Diamagnetic
    1       1.6875       -1.4199       3.1074         0.8024       0.8851
    2      26.3618        0.3355      26.0263         0.4122      25.9496
    3       1.9290        1.4323       0.4966         0.1079       1.8210
    4       1.9231        1.6750       0.2482         0.1034       1.8198
 Sum       31.9014        2.0229      29.8785         1.4259      30.4754

 Contributions to Isotropic shielding for atom   13 (    32.4336 ppm):
                         Standard Origin              Atomic Origin
 NLMO      Total    Paramagnetic  Diamagnetic   Paramagnetic  Diamagnetic
    1       1.4604       -0.4930       1.9534         0.4889       0.9715
    2       1.9670        1.1798       0.7872         0.1250       1.8420
    3      26.3719        0.1729      26.1991         0.4604      25.9115
    4       1.8821        2.4142      -0.5321         0.0372       1.8449
    6      -0.1263        0.5625      -0.6888        -1.0289       0.9026
   20      -0.2110       -0.0378      -0.1732        -1.0023       0.7913
 Sum       31.3442        3.7986      27.5456        -0.9197      32.2638

 Contributions to Isotropic shielding for atom   14 (    32.4579 ppm):
                         Standard Origin              Atomic Origin
 NLMO      Total    Paramagnetic  Diamagnetic   Paramagnetic  Diamagnetic
    1       1.3879       -0.2786       1.6664         0.3999       0.9880
    2       1.9728        1.3599       0.6130         0.1394       1.8334
    3       1.8415        2.3206      -0.4790         0.0068       1.8347
    4      26.3801        0.1260      26.2541         0.4527      25.9274
    5      -0.1555        0.7278      -0.8833        -1.1390       0.9835
 Sum       31.4269        4.2557      27.1711        -0.1401      31.5670

 Contributions to Isotropic shielding for atom   15 (    32.3560 ppm):
                         Standard Origin              Atomic Origin
 NLMO      Total    Paramagnetic  Diamagnetic   Paramagnetic  Diamagnetic
    1       0.7678        2.3529      -1.5852        -0.2268       0.9945
    3       0.2526       -0.7974       1.0500        -0.7231       0.9757
    5       1.3762        0.7772       0.5990         0.4296       0.9466
    6       1.4201        0.3675       1.0526         0.3971       1.0230
    7      26.4393       -0.1484      26.5877         0.4186      26.0207
   19       0.0279       -0.2325       0.2603        -1.0209       1.0488
   21      -0.1239       -0.1259       0.0019        -1.2798       1.1558
 Sum       30.1599        2.1935      27.9664        -2.0053      32.1652

 Contributions to Isotropic shielding for atom   16 (    31.9197 ppm):
                         Standard Origin              Atomic Origin
 NLMO      Total    Paramagnetic  Diamagnetic   Paramagnetic  Diamagnetic
    2      -0.1859       -1.2180       1.0321        -0.7653       0.5795
    8       1.1255        0.1524       0.9731         0.1034       1.0221
    9       0.7449        0.4100       0.3349        -0.4074       1.1523
   10       0.5144        1.1893      -0.6748        -1.1082       1.6226
   11      26.8300        0.2261      26.6039         0.7155      26.1145
   17      -0.0920       -0.4554       0.3634        -1.2203       1.1282
   22       0.2315       -0.8188       1.0503        -0.7701       1.0016
 Sum       29.1684       -0.5143      29.6828        -3.4525      32.6209

 Contributions to Isotropic shielding for atom   17 (    32.5058 ppm):
                         Standard Origin              Atomic Origin
 NLMO      Total    Paramagnetic  Diamagnetic   Paramagnetic  Diamagnetic
   12       1.2916        0.6091       0.6824         0.3039       0.9877
   13       1.0187        1.3819      -0.3632         0.0127       1.0060
   14      26.4162       -0.0042      26.4204         0.4557      25.9604
   15       2.1119        1.2633       0.8486         0.3485       1.7633
   17       0.0060       -0.1253       0.1312        -1.0176       1.0236
   29      -0.2027       -1.1342       0.9315        -0.9568       0.7541
 Sum       30.6416        1.9906      28.6509        -0.8536      31.4952

 Contributions to Isotropic shielding for atom   18 (    32.7053 ppm):
                         Standard Origin              Atomic Origin
 NLMO      Total    Paramagnetic  Diamagnetic   Paramagnetic  Diamagnetic
   12       1.3797        0.0255       1.3542         0.5092       0.8705
   13       1.1387        0.7730       0.3657         0.1788       0.9599
   14       2.0461        1.5113       0.5348         0.2872       1.7588
   15      26.4113        0.1682      26.2430         0.4064      26.0049
   16      -0.1617       -0.1699       0.0081        -1.1049       0.9432
   26      -0.3808       -1.2489       0.8681        -0.8879       0.5071
   29      -0.2004       -1.1972       0.9968        -0.7999       0.5996
 Sum       30.2329       -0.1379      30.3708        -1.4110      31.6439

 Contributions to Isotropic shielding for atom   19 (    32.5593 ppm):
                         Standard Origin              Atomic Origin
 NLMO      Total    Paramagnetic  Diamagnetic   Paramagnetic  Diamagnetic
    8       1.2055        0.8930       0.3125         0.0874       1.1181
   11      -0.1188       -0.5546       0.4359        -1.1801       1.0614
   12       1.1627        0.9783       0.1844         0.0463       1.1164
   14      -0.0029       -0.4974       0.4945        -1.0470       1.0441
   16       1.0334        1.3978      -0.3644        -0.2327       1.2661
   17      26.7018       -0.1932      26.8950         0.4058      26.2961
   30      -0.1257       -1.4963       1.3706        -1.0058       0.8801
 Sum       29.8561        0.5275      29.3286        -2.9262      32.7823

 Contributions to Isotropic shielding for atom   20 (    32.9445 ppm):
                         Standard Origin              Atomic Origin
 NLMO      Total    Paramagnetic  Diamagnetic   Paramagnetic  Diamagnetic
    1      -0.1260       -0.3608       0.2348        -1.1884       1.0624
    2      -0.0237       -1.1307       1.1070        -0.9643       0.9406
    5       1.2696        0.6416       0.6280         0.4844       0.7852
   13       1.3117        0.0181       1.2935         0.3969       0.9148
   18      26.4727        0.1462      26.3264         0.4436      26.0290
   19       1.9757        1.9527       0.0229         0.1991       1.7766
 Sum       30.8799        1.2672      29.6127        -0.6288      31.5087

 Contributions to Isotropic shielding for atom   21 (    32.3862 ppm):
                         Standard Origin              Atomic Origin
 NLMO      Total    Paramagnetic  Diamagnetic   Paramagnetic  Diamagnetic
    4      -0.0706       -1.2004       1.1298        -0.9248       0.8542
    5       1.0348        1.1830      -0.1482         0.0755       0.9593
    7       0.0706       -0.1748       0.2454        -0.9555       1.0261
   13       1.2064        0.7104       0.4960         0.2439       0.9625
   18       2.0097        1.6504       0.3593         0.2481       1.7615
   19      26.4143       -0.0357      26.4499         0.4631      25.9512
 Sum       30.6652        2.1331      28.5321        -0.8496      31.5148

 Contributions to Isotropic shielding for atom   22 (    32.1666 ppm):
                         Standard Origin              Atomic Origin
 NLMO      Total    Paramagnetic  Diamagnetic   Paramagnetic  Diamagnetic
    1      -0.1531       -0.4179       0.2647        -1.2778       1.1246
    3      -0.0480       -1.4546       1.4067        -0.9859       0.9379
    6       1.0396        1.4140      -0.3743         0.1575       0.8821
    9       1.1940        0.8522       0.3418         0.3062       0.8878
   10       0.0480       -0.0548       0.1028        -1.5517       1.5997
   20      26.1673        0.0254      26.1419         0.4751      25.6921
   21       2.1314        1.2764       0.8549         0.2787       1.8527
 Sum       30.3792        1.6408      28.7384        -2.5978      32.9770

 Contributions to Isotropic shielding for atom   23 (    32.1545 ppm):
                         Standard Origin              Atomic Origin
 NLMO      Total    Paramagnetic  Diamagnetic   Paramagnetic  Diamagnetic
    6       1.2023        0.4916       0.7106         0.1762       1.0261
    7      -0.0490       -0.8933       0.8444        -1.1739       1.1249
    9       1.3888        0.0565       1.3322         0.5136       0.8751
   10       0.1138       -0.3444       0.4582        -1.3070       1.4208
   20       1.9612        1.3558       0.6054         0.0448       1.9165
   21      26.2530        0.1633      26.0897         0.3737      25.8792
   27      -0.3253       -1.0144       0.6890        -0.9064       0.5811
 Sum       30.5447       -0.1849      30.7296        -2.2790      32.8237

 Contributions to Isotropic shielding for atom   24 (    34.8095 ppm):
                         Standard Origin              Atomic Origin
 NLMO      Total    Paramagnetic  Diamagnetic   Paramagnetic  Diamagnetic
   10       1.5443        1.7668      -0.2225         0.8187       0.7256
   11       0.1252        0.2680      -0.1428        -0.9044       1.0296
   16      -0.0372       -0.0064      -0.0308        -1.0824       1.0452
   22      22.9737       -0.4972      23.4709        -0.2113      23.1850
   25      -0.3275       -1.0401       0.7125        -0.7814       0.4539
   43       4.0418        1.1509       2.8909         2.1226       1.9192
   44       5.5506        2.5145       3.0360         2.3830       3.1676
 Sum       33.8708        4.1566      29.7142         2.3448      31.5260

 Contributions to Isotropic shielding for atom   25 (    32.4923 ppm):
                         Standard Origin              Atomic Origin
 NLMO      Total    Paramagnetic  Diamagnetic   Paramagnetic  Diamagnetic
   10      -0.0131       -0.2198       0.2067        -1.1260       1.1129
   16       1.5435        0.0514       1.4921         0.5105       1.0331
   22      -0.1538       -0.7560       0.6022        -1.0245       0.8707
   23       1.0517        1.3307      -0.2790         0.0019       1.0498
   24       0.7847        2.1409      -1.3562        -0.2557       1.0403
   25      26.5514       -0.1224      26.6738         0.4126      26.1388
 Sum       29.7644        2.4249      27.3395        -1.4812      31.2456

 Contributions to Isotropic shielding for atom   26 (    32.7178 ppm):
                         Standard Origin              Atomic Origin
 NLMO      Total    Paramagnetic  Diamagnetic   Paramagnetic  Diamagnetic
   12      -0.0874       -0.0658      -0.0216        -1.0373       0.9499
   23       1.4238       -0.4272       1.8510         0.5063       0.9174
   26      26.3691        0.2661      26.1030         0.3664      26.0027
   27       2.1528        0.2823       1.8706         0.3107       1.8421
   28       1.9747        1.9215       0.0532         0.1343       1.8405
 Sum       31.8331        1.9769      29.8562         0.2804      31.5527

 Contributions to Isotropic shielding for atom   27 (    32.1427 ppm):
                         Standard Origin              Atomic Origin
 NLMO      Total    Paramagnetic  Diamagnetic   Paramagnetic  Diamagnetic
   10       0.1006       -0.4345       0.5351        -1.0752       1.1758
   23       1.4743       -0.5529       2.0272         0.4628       1.0115
   26       2.1169        0.2917       1.8251         0.2807       1.8362
   27      26.0437        0.3073      25.7364         0.3878      25.6559
   28       1.9555        1.7925       0.1630         0.0758       1.8798
   43      -0.4167        0.2268      -0.6434         0.6850      -1.1017
 Sum       31.2743        1.6308      29.6435         0.8168      30.4575

 Contributions to Isotropic shielding for atom   28 (    32.5889 ppm):
                         Standard Origin              Atomic Origin
 NLMO      Total    Paramagnetic  Diamagnetic   Paramagnetic  Diamagnetic
   23       1.1285        1.0319       0.0966         0.1167       1.0118
   24      -0.1501        0.4375      -0.5876        -1.1558       1.0057
   26       2.0246        1.5515       0.4731         0.1633       1.8613
   27       2.0752        1.4719       0.6033         0.1801       1.8951
   28      26.3445       -0.0283      26.3728         0.4025      25.9420
   31      -0.0919       -1.0615       0.9696        -0.9854       0.8935
 Sum       31.3308        3.4030      27.9277        -1.2787      32.6094

 Contributions to Isotropic shielding for atom   29 (    32.5732 ppm):
                         Standard Origin              Atomic Origin
 NLMO      Total    Paramagnetic  Diamagnetic   Paramagnetic  Diamagnetic
   12      -0.0590        0.1942      -0.2532        -1.1027       1.0437
   23      -0.1403        0.3231      -0.4633        -1.0449       0.9047
   24       1.5674       -1.1568       2.7241         0.6468       0.9206
   29      26.2952        0.2835      26.0116         0.4120      25.8832
   30       1.9978        0.9237       1.0741         0.1893       1.8085
   31       1.8907        1.9922      -0.1016         0.0431       1.8476
 Sum       31.5517        2.5599      28.9918        -0.8565      32.4083

 Contributions to Isotropic shielding for atom   30 (    32.6361 ppm):
                         Standard Origin              Atomic Origin
 NLMO      Total    Paramagnetic  Diamagnetic   Paramagnetic  Diamagnetic
   24       1.5344       -0.7408       2.2752         0.5222       1.0122
   29       2.0326        0.8534       1.1792         0.2046       1.8280
   30      26.4018        0.2517      26.1501         0.4242      25.9776
   31       1.8940        2.2927      -0.3987         0.0480       1.8460
 Sum       31.8627        2.6569      29.2058         1.1990      30.6637

 Contributions to Isotropic shielding for atom   31 (    32.4762 ppm):
                         Standard Origin              Atomic Origin
 NLMO      Total    Paramagnetic  Diamagnetic   Paramagnetic  Diamagnetic
   23      -0.1647        0.7336      -0.8984        -1.1093       0.9446
   24       1.2911        0.2117       1.0794         0.2718       1.0193
   29       1.9587        1.6535       0.3052         0.0968       1.8619
   30       1.9169        1.9994      -0.0826         0.0733       1.8436
   31      26.3441        0.0241      26.3200         0.4487      25.8955
 Sum       31.3460        4.6224      26.7236        -0.2188      31.5648
 
 1\1\GINC-COMPUTE-9-6\SP\RHF\STO-3G\C10H20O1\YTSAI.IQUIR\03-Aug-2021\0\
 \# rhf/STO-3G nmr pop=nbo\\comment\\0,1\C,0,0.374535549,0.440500102,-3
 .483497554\C,0,-0.338116235,0.069248126,-2.182221396\C,0,1.278183892,-
 0.319225757,-0.252497451\C,0,-0.880463125,1.012797844,0.101955457\C,0,
 0.386809788,0.433341222,0.772096815\C,0,-0.64911419,1.337237706,-1.369
 983979\C,0,0.468395958,-0.963591169,-1.3764757\O,0,2.100480021,-1.3033
 22286,0.36065934\C,0,0.085221805,-0.330414653,2.097392888\C,0,-0.67296
 3627,-1.647840693,1.91407628\C,0,-0.667731793,0.555265122,3.098744227\
 H,0,1.355547458,0.886255393,-3.287421482\H,0,0.524562778,-0.444874856,
 -4.110365576\H,0,-0.217635493,1.16006314,-4.058777131\H,0,-1.289729281
 ,-0.403844605,-2.459452451\H,0,1.963241165,0.404898181,-0.713237866\H,
 0,-1.186519001,1.92532666,0.627432176\H,0,-1.720390119,0.313555759,0.1
 75307988\H,0,0.991997091,1.300601048,1.079379542\H,0,0.170639898,2.062
 551226,-1.452425259\H,0,-1.537954618,1.826222283,-1.78661912\H,0,1.126
 241948,-1.551113085,-2.029250063\H,0,-0.222889917,-1.698695425,-0.9459
 9656\H,0,2.683151958,-0.845161579,0.99003787\H,0,1.047282045,-0.572800
 224,2.56773508\H,0,-1.656169258,-1.496947482,1.459306696\H,0,-0.113257
 805,-2.353125742,1.294384799\H,0,-0.832238039,-2.133665583,2.883456275
 \H,0,-1.686784666,0.773308106,2.763350689\H,0,-0.144611721,1.505186547
 ,3.250458285\H,0,-0.739722467,0.058264675,4.072447181\\Version=EM64L-G
 09RevC.01\State=1-A\HF=-459.6099191\RMSD=9.228e-09\Dipole=-0.029955,0.
 5249911,0.1049786\Quadrupole=1.1793798,-1.8402148,0.660835,2.1190476,1
 .4248774,0.1997912\PG=C01 [X(C10H20O1)]\\@


 NATURE GIVES TO EVERY TIME AND SEASON SOME BEAUTY OF ITS OWN.

                                                    --DICKENS
 Job cpu time:  0 days  0 hours  0 minutes 23.0 seconds.
 File lengths (MBytes):  RWF=      5 Int=      0 D2E=      0 Chk=      1 Scr=      1
 Normal termination of Gaussian 09 at Tue Aug  3 16:37:33 2021.
