 Entering Gaussian System, Link 0=g09
 Input=/home/ytsai.iquir/menthol/01_menthol_M0016_MMFF_NMR_rhf_STO-3G_nbo.gjc
 Output=/home/ytsai.iquir/menthol/01_menthol_M0016_MMFF_NMR_rhf_STO-3G_nbo.log
 Initial command:
 /share/apps/Gaussian09/EM64T.SSE4.2-enabled/g09/l1.exe /tmp/Gau-30763.inp -scrdir=/tmp/
 Entering Link 1 = /share/apps/Gaussian09/EM64T.SSE4.2-enabled/g09/l1.exe PID=     30764.
  
 Copyright (c) 1988,1990,1992,1993,1995,1998,2003,2009,2011,
            Gaussian, Inc.  All Rights Reserved.
  
 This is part of the Gaussian(R) 09 program.  It is based on
 the Gaussian(R) 03 system (copyright 2003, Gaussian, Inc.),
 the Gaussian(R) 98 system (copyright 1998, Gaussian, Inc.),
 the Gaussian(R) 94 system (copyright 1995, Gaussian, Inc.),
 the Gaussian 92(TM) system (copyright 1992, Gaussian, Inc.),
 the Gaussian 90(TM) system (copyright 1990, Gaussian, Inc.),
 the Gaussian 88(TM) system (copyright 1988, Gaussian, Inc.),
 the Gaussian 86(TM) system (copyright 1986, Carnegie Mellon
 University), and the Gaussian 82(TM) system (copyright 1983,
 Carnegie Mellon University). Gaussian is a federally registered
 trademark of Gaussian, Inc.
  
 This software contains proprietary and confidential information,
 including trade secrets, belonging to Gaussian, Inc.
  
 This software is provided under written license and may be
 used, copied, transmitted, or stored only in accord with that
 written license.
  
 The following legend is applicable only to US Government
 contracts under FAR:
  
                    RESTRICTED RIGHTS LEGEND
  
 Use, reproduction and disclosure by the US Government is
 subject to restrictions as set forth in subparagraphs (a)
 and (c) of the Commercial Computer Software - Restricted
 Rights clause in FAR 52.227-19.
  
 Gaussian, Inc.
 340 Quinnipiac St., Bldg. 40, Wallingford CT 06492
  
  
 ---------------------------------------------------------------
 Warning -- This program may not be used in any manner that
 competes with the business of Gaussian, Inc. or will provide
 assistance to any competitor of Gaussian, Inc.  The licensee
 of this program is prohibited from giving any competitor of
 Gaussian, Inc. access to this program.  By using this program,
 the user acknowledges that Gaussian, Inc. is engaged in the
 business of creating and licensing software in the field of
 computational chemistry and represents and warrants to the
 licensee that it is not a competitor of Gaussian, Inc. and that
 it will not use this program in any manner prohibited above.
 ---------------------------------------------------------------
  

 Cite this work as:
 Gaussian 09, Revision C.01,
 M. J. Frisch, G. W. Trucks, H. B. Schlegel, G. E. Scuseria, 
 M. A. Robb, J. R. Cheeseman, G. Scalmani, V. Barone, B. Mennucci, 
 G. A. Petersson, H. Nakatsuji, M. Caricato, X. Li, H. P. Hratchian, 
 A. F. Izmaylov, J. Bloino, G. Zheng, J. L. Sonnenberg, M. Hada, 
 M. Ehara, K. Toyota, R. Fukuda, J. Hasegawa, M. Ishida, T. Nakajima, 
 Y. Honda, O. Kitao, H. Nakai, T. Vreven, J. A. Montgomery, Jr., 
 J. E. Peralta, F. Ogliaro, M. Bearpark, J. J. Heyd, E. Brothers, 
 K. N. Kudin, V. N. Staroverov, T. Keith, R. Kobayashi, J. Normand, 
 K. Raghavachari, A. Rendell, J. C. Burant, S. S. Iyengar, J. Tomasi, 
 M. Cossi, N. Rega, J. M. Millam, M. Klene, J. E. Knox, J. B. Cross, 
 V. Bakken, C. Adamo, J. Jaramillo, R. Gomperts, R. E. Stratmann, 
 O. Yazyev, A. J. Austin, R. Cammi, C. Pomelli, J. W. Ochterski, 
 R. L. Martin, K. Morokuma, V. G. Zakrzewski, G. A. Voth, 
 P. Salvador, J. J. Dannenberg, S. Dapprich, A. D. Daniels, 
 O. Farkas, J. B. Foresman, J. V. Ortiz, J. Cioslowski, 
 and D. J. Fox, Gaussian, Inc., Wallingford CT, 2010.
 
 ******************************************
 Gaussian 09:  EM64L-G09RevC.01 23-Sep-2011
                 3-Aug-2021 
 ******************************************
 %nprocshared=4
 Will use up to    4 processors via shared memory.
 ------------------------
 # rhf/STO-3G nmr pop=nbo
 ------------------------
 1/38=1/1;
 2/12=2,17=6,18=5,40=1/2;
 3/6=3,11=1,16=1,25=1,30=1,116=1/1,2,8,3;
 4//1;
 5/5=2,38=5/2;
 8/6=1,10=90,11=11/1;
 10/13=100,45=16/2;
 6/7=2,8=2,9=2,10=2,28=1,64=1/1,7;
 99/9=1/99;
 -------
 comment
 -------
 Charge =  0 Multiplicity = 1
 Symbolic Z-Matrix:
 6                     0.87851   0.40133  -3.61866 
 6                     0.16884   0.29367  -2.27044 
 6                    -0.01862  -1.05742  -0.12771 
 6                    -0.26588   1.45147  -0.0635 
 6                     0.21821   0.21225   0.71988 
 6                     0.39345   1.5586   -1.43721 
 6                     0.6447   -0.9427   -1.50416 
 8                     0.53111  -2.20856   0.50148 
 6                    -0.40708   0.20524   2.14837 
 6                     0.41579  -0.60847   3.15327 
 6                    -1.87029  -0.24141   2.18807 
 1                     0.51696   1.26981  -4.17922 
 1                     1.9614    0.50666  -3.49237 
 1                     0.69376  -0.49048  -4.22673 
 1                    -0.90732   0.19021  -2.463 
 1                    -1.0914   -1.2295   -0.27702 
 1                    -0.04224   2.36287   0.50398 
 1                    -1.35407   1.4171   -0.19372 
 1                     1.30414   0.3217    0.8565 
 1                     1.46858   1.73812  -1.3086 
 1                    -0.0122    2.43025  -1.9647 
 1                     1.73649  -0.92047  -1.38319 
 1                     0.43391  -1.85087  -2.08372 
 1                    -0.14281  -2.56025   1.10676 
 1                    -0.37931   1.24035   2.51672 
 1                     0.34444  -1.68478   2.98141 
 1                     1.47213  -0.32273   3.11893 
 1                     0.05895  -0.42155   4.17253 
 1                    -1.98036  -1.29887   1.92868 
 1                    -2.48775   0.34625   1.50267 
 1                    -2.28204  -0.10783   3.19469 
 
                          Input orientation:                          
 ---------------------------------------------------------------------
 Center     Atomic      Atomic             Coordinates (Angstroms)
 Number     Number       Type             X           Y           Z
 ---------------------------------------------------------------------
      1          6           0        0.878506    0.401328   -3.618657
      2          6           0        0.168839    0.293671   -2.270441
      3          6           0       -0.018616   -1.057423   -0.127714
      4          6           0       -0.265883    1.451471   -0.063503
      5          6           0        0.218212    0.212246    0.719882
      6          6           0        0.393452    1.558603   -1.437212
      7          6           0        0.644698   -0.942701   -1.504160
      8          8           0        0.531109   -2.208557    0.501481
      9          6           0       -0.407083    0.205243    2.148372
     10          6           0        0.415792   -0.608470    3.153272
     11          6           0       -1.870286   -0.241413    2.188072
     12          1           0        0.516957    1.269810   -4.179222
     13          1           0        1.961404    0.506659   -3.492370
     14          1           0        0.693755   -0.490482   -4.226733
     15          1           0       -0.907320    0.190210   -2.462999
     16          1           0       -1.091397   -1.229498   -0.277018
     17          1           0       -0.042239    2.362871    0.503981
     18          1           0       -1.354074    1.417102   -0.193719
     19          1           0        1.304143    0.321702    0.856504
     20          1           0        1.468576    1.738123   -1.308598
     21          1           0       -0.012203    2.430248   -1.964696
     22          1           0        1.736489   -0.920471   -1.383190
     23          1           0        0.433906   -1.850873   -2.083722
     24          1           0       -0.142813   -2.560253    1.106761
     25          1           0       -0.379309    1.240349    2.516719
     26          1           0        0.344445   -1.684778    2.981414
     27          1           0        1.472133   -0.322726    3.118930
     28          1           0        0.058951   -0.421546    4.172526
     29          1           0       -1.980356   -1.298870    1.928677
     30          1           0       -2.487753    0.346252    1.502673
     31          1           0       -2.282036   -0.107828    3.194689
 ---------------------------------------------------------------------
                    Distance matrix (angstroms):
                    1          2          3          4          5
     1  C    0.000000
     2  C    1.527385   0.000000
     3  C    3.888376   2.540054   0.000000
     4  C    3.879632   2.529834   2.521867   0.000000
     5  C    4.392569   2.991838   1.544850   1.543930   0.000000
     6  C    2.516598   1.531266   2.954349   1.527507   2.548812
     7  C    2.516382   1.530439   1.532237   2.938828   2.542077
     8  O    4.889552   3.751791   1.422390   3.788167   2.450691
     9  C    5.911837   4.457064   2.631691   2.542718   1.559368
    10  C    6.862421   5.503772   3.339931   3.880165   2.575656
    11  C    6.456553   4.931803   3.075292   3.241845   2.592916
    12  H    1.095085   2.171975   4.702931   4.193445   5.020847
    13  H    1.095313   2.179854   4.205679   4.196499   4.568201
    14  H    1.095087   2.171984   4.198911   4.693035   5.018861
    15  H    2.137590   1.098135   2.792837   2.785641   3.376097
    16  H    4.207929   2.807485   1.096705   2.813300   2.188037
    17  H    4.657421   3.467501   3.478219   1.096679   2.177071
    18  H    4.212649   2.809651   2.812664   1.096494   2.181382
    19  H    4.496062   3.326783   2.149502   2.141908   1.099951
    20  H    2.733419   2.168156   3.379541   2.154246   2.829565
    21  H    2.765044   2.165922   3.941876   2.153344   3.489926
    22  H    2.735068   2.172299   2.162260   3.373007   2.830393
    23  H    2.761540   2.168915   2.158774   3.934013   3.487574
    24  H    5.669535   4.432550   1.948808   4.180741   2.822545
    25  H    6.318932   4.910557   3.521773   2.591329   2.154682
    26  H    6.942477   5.614898   3.192501   4.413624   2.954515
    27  H    6.802333   5.578875   3.647302   4.036875   2.759339
    28  H    7.877266   6.483474   4.347691   4.643022   3.513945
    29  H    6.468128   4.978737   2.852274   3.804284   2.928883
    30  H    6.128846   4.614828   3.274920   2.934472   2.820100
    31  H    7.527945   6.002969   4.130758   4.136678   3.532472
                    6          7          8          9         10
     6  C    0.000000
     7  C    2.514783   0.000000
     8  O    4.238983   2.374424   0.000000
     9  C    3.915208   3.970518   3.069021   0.000000
    10  C    5.076343   4.675017   3.099286   1.532670   0.000000
    11  C    4.637592   4.522115   3.532838   1.530373   2.508485
    12  H    2.759940   3.473827   5.831656   6.482715   7.569916
    13  H    2.790830   2.790580   5.036763   6.125239   6.913537
    14  H    3.474243   2.760311   5.033313   6.506754   7.386181
    15  H    2.148661   2.147468   4.075696   4.638448   5.825033
    16  H    3.365165   2.145263   2.048693   2.899877   3.797919
    17  H    2.145904   3.928272   4.607243   2.737242   4.007169
    18  H    2.149453   3.358722   4.145192   2.801925   4.293917
    19  H    2.760510   2.757956   2.669426   2.147272   2.632400
    20  H    1.097570   2.811376   4.442016   4.221191   5.150062
    21  H    1.096612   3.467044   5.281640   4.692963   5.967460
    22  H    2.820014   1.098698   2.581490   4.281830   4.735090
    23  H    3.470467   1.097771   2.611639   4.779696   5.382379
    24  H    4.870766   3.170734   0.971713   2.966945   2.882656
    25  H    4.041289   4.688472   4.096950   1.099043   2.110810
    26  H    5.481440   4.556446   2.541506   2.197938   1.092275
    27  H    5.045928   4.737297   3.360495   2.179952   1.094845
    28  H    5.958359   5.730573   4.110099   2.169620   1.095971
    29  H    5.012917   4.336143   3.028511   2.187650   2.778096
    30  H    4.291161   4.529315   4.079579   2.183117   3.473694
    31  H    5.602655   5.598390   4.424954   2.169848   2.744200
                   11         12         13         14         15
    11  C    0.000000
    12  H    6.966000   0.000000
    13  H    6.892669   1.772171   0.000000
    14  H    6.912747   1.769786   1.772150   0.000000
    15  H    4.769283   2.477806   3.064200   2.477407   0.000000
    16  H    2.767607   4.905154   4.761546   4.396950   2.613038
    17  H    3.600030   4.841474   4.840551   5.573417   3.777802
    18  H    2.947893   4.405302   4.764704   4.908940   2.618106
    19  H    3.488147   5.184313   4.402148   5.183775   3.990859
    20  H    5.224295   3.060290   2.555043   3.752671   3.061626
    21  H    5.275957   2.555534   3.151049   3.761098   2.463190
    22  H    5.120924   3.755313   2.556545   3.059072   3.064200
    23  H    5.113500   3.759877   3.142530   2.551604   2.471590
    24  H    3.087137   6.560967   5.914870   5.781865   4.570854
    25  H    2.127591   6.755722   6.490485   7.044246   5.116559
    26  H    2.760023   7.748164   7.023306   7.314762   5.892718
    27  H    3.470573   7.530707   6.681060   7.388694   6.089567
    28  H    2.773529   8.533589   7.951825   8.423496   6.733358
    29  H    1.094357   7.081039   6.941553   6.759692   4.759788
    30  H    1.093795   6.493471   6.691127   6.606680   4.271846
    31  H    1.095747   8.006673   7.943623   8.004953   5.829932
                   16         17         18         19         20
    16  H    0.000000
    17  H    3.823062   0.000000
    18  H    2.660907   1.761300   0.000000
    19  H    3.070782   2.470504   3.060880   0.000000
    20  H    4.052701   2.440966   3.051781   2.592480   0.000000
    21  H    4.172128   2.469779   2.442016   3.760040   1.761309
    22  H    3.052221   4.183973   4.053477   2.597335   2.673100
    23  H    2.444756   4.967752   4.177157   3.757968   3.814741
    24  H    2.141393   4.960908   4.356346   3.234498   5.187154
    25  H    3.796338   2.329117   2.885808   2.536579   4.277325
    26  H    3.589749   4.761372   4.752693   3.076073   5.602153
    27  H    4.350447   4.042736   4.689147   2.358407   4.883658
    28  H    4.666318   4.606674   4.943821   3.619243   6.057551
    29  H    2.379107   4.381142   3.503327   3.816247   5.621246
    30  H    2.756827   3.323353   2.304277   3.846636   5.049068
    31  H    3.837775   4.284969   3.829861   4.302590   6.144446
                   21         22         23         24         25
    21  H    0.000000
    22  H    3.824055   0.000000
    23  H    4.305946   1.747316   0.000000
    24  H    5.861399   3.524276   3.318886   0.000000
    25  H    4.651205   4.935083   5.601877   4.060602   0.000000
    26  H    6.443961   4.644537   5.068648   2.125605   3.048956
    27  H    5.968700   4.549316   5.520937   3.415173   2.496738
    28  H    6.767812   5.824864   6.428390   3.743486   2.386559
    29  H    5.739190   4.992654   4.715158   2.375541   3.058886
    30  H    4.742787   5.270391   5.121101   3.755431   2.504643
    31  H    6.181685   6.145398   6.186774   3.866536   2.428497
                   26         27         28         29         30
    26  H    0.000000
    27  H    1.773634   0.000000
    28  H    1.759548   1.765478   0.000000
    29  H    2.581062   3.780112   3.156475   0.000000
    30  H    3.785909   4.329033   3.768731   1.773516   0.000000
    31  H    3.070938   3.761078   2.556326   1.764194   1.763925
                   31
    31  H    0.000000
 Stoichiometry    C10H20O
 Framework group  C1[X(C10H20O)]
 Deg. of freedom    87
 Full point group                 C1      NOp   1
 Largest Abelian subgroup         C1      NOp   1
 Largest concise Abelian subgroup C1      NOp   1
                         Standard orientation:                         
 ---------------------------------------------------------------------
 Center     Atomic      Atomic             Coordinates (Angstroms)
 Number     Number       Type             X           Y           Z
 ---------------------------------------------------------------------
      1          6           0        3.736723    0.157501   -0.027051
      2          6           0        2.274899   -0.092933    0.337995
      3          6           0       -0.062450    0.901387    0.336799
      4          6           0        0.260475   -1.564143   -0.083546
      5          6           0       -0.611317   -0.333082   -0.412463
      6          6           0        1.736584   -1.324801   -0.395146
      7          6           0        1.418418    1.134951    0.020213
      8          8           0       -0.757069    2.084526   -0.038542
      9          6           0       -2.115973   -0.664040   -0.171415
     10          6           0       -3.058887    0.234558   -0.979198
     11          6           0       -2.528024   -0.662551    1.302441
     12          1           0        4.354314   -0.710361    0.227128
     13          1           0        3.852599    0.353469   -1.098442
     14          1           0        4.130785    1.020727    0.519548
     15          1           0        2.224584   -0.281398    1.418665
     16          1           0       -0.165663    0.774387    1.421225
     17          1           0       -0.083191   -2.430367   -0.661694
     18          1           0        0.159614   -1.828722    0.975757
     19          1           0       -0.504072   -0.141318   -1.490246
     20          1           0        1.861503   -1.201918   -1.478638
     21          1           0        2.313906   -2.211978   -0.108485
     22          1           0        1.526816    1.413140   -1.037141
     23          1           0        1.776887    2.003124    0.588435
     24          1           0       -1.537906    2.159000    0.535019
     25          1           0       -2.285937   -1.682004   -0.549248
     26          1           0       -3.094267    1.257449   -0.597742
     27          1           0       -2.762300    0.269053   -2.032541
     28          1           0       -4.081127   -0.158638   -0.939523
     29          1           0       -2.483611    0.341020    1.736597
     30          1           0       -1.890627   -1.322638    1.897755
     31          1           0       -3.558453   -1.019315    1.410126
 ---------------------------------------------------------------------
 Rotational constants (GHZ):      1.9372875      0.6746439      0.5763337
 Standard basis: STO-3G (5D, 7F)
 There are    75 symmetry adapted basis functions of A   symmetry.
 Integral buffers will be    131072 words long.
 Raffenetti 1 integral format.
 Two-electron integral symmetry is turned on.
    75 basis functions,   225 primitive gaussians,    75 cartesian basis functions
    44 alpha electrons       44 beta electrons
       nuclear repulsion energy       691.0292954800 Hartrees.
 NAtoms=   31 NActive=   31 NUniq=   31 SFac= 1.00D+00 NAtFMM=   60 NAOKFM=F Big=F
 One-electron integrals computed using PRISM.
 NBasis=    75 RedAO= T  NBF=    75
 NBsUse=    75 1.00D-06 NBFU=    75
 Harris functional with IExCor=  205 diagonalized for initial guess.
 ExpMin= 1.69D-01 ExpMax= 1.31D+02 ExpMxC= 1.31D+02 IAcc=1 IRadAn=         1 AccDes= 0.00D+00
 HarFok:  IExCor=  205 AccDes= 0.00D+00 IRadAn=         1 IDoV= 1
 ScaDFX=  1.000000  1.000000  1.000000  1.000000
 FoFCou: FMM=F IPFlag=           0 FMFlag=      100000 FMFlg1=           0
         NFxFlg=           0 DoJE=T BraDBF=F KetDBF=T FulRan=T
         Omega=  0.000000  0.000000  1.000000  0.000000  0.000000 ICntrl=     500 IOpCl=  0
         NMat0=    1 NMatS0=    1 NMatT0=    0 NMatD0=    1 NMtDS0=    0 NMtDT0=    0
         I1Cent=           4 NGrid=           0.
 Petite list used in FoFCou.
 Initial guess orbital symmetries:
       Occupied  (A) (A) (A) (A) (A) (A) (A) (A) (A) (A) (A) (A)
                 (A) (A) (A) (A) (A) (A) (A) (A) (A) (A) (A) (A)
                 (A) (A) (A) (A) (A) (A) (A) (A) (A) (A) (A) (A)
                 (A) (A) (A) (A) (A) (A) (A) (A)
       Virtual   (A) (A) (A) (A) (A) (A) (A) (A) (A) (A) (A) (A)
                 (A) (A) (A) (A) (A) (A) (A) (A) (A) (A) (A) (A)
                 (A) (A) (A) (A) (A) (A) (A)
 The electronic state of the initial guess is 1-A.
 Requested convergence on RMS density matrix=1.00D-08 within 128 cycles.
 Requested convergence on MAX density matrix=1.00D-06.
 Requested convergence on             energy=1.00D-06.
 No special actions if energy rises.
 Keep R1 ints in memory in canonical form, NReq=4898789.
 SCF Done:  E(RHF) =  -459.620181502     A.U. after   10 cycles
             Convg  =    0.9071D-08             -V/T =  2.0089
 Range of M.O.s used for correlation:     1    75
 NBasis=    75 NAE=    44 NBE=    44 NFC=     0 NFV=     0
 NROrb=     75 NOA=    44 NOB=    44 NVA=    31 NVB=    31
          Differentiating once with respect to magnetic field using GIAOs.
          Electric field/nuclear overlap derivatives assumed to be zero.
          Keep R3 ints in memory in canonical form, NReq=4863575.
 FoFCou: FMM=F IPFlag=           0 FMFlag=           0 FMFlg1=           0
         NFxFlg=           0 DoJE=F BraDBF=F KetDBF=T FulRan=T
         Omega=  0.000000  0.000000  1.000000  0.000000  0.000000 ICntrl=    6100 IOpCl=  0
         NMat0=    1 NMatS0=    1 NMatT0=    0 NMatD0=    1 NMtDS0=    0 NMtDT0=    0
         I1Cent=           7 NGrid=          31.
 Symmetry not used in FoFCou.
          There are     3 degrees of freedom in the 1st order CPHF.  IDoFFX=0.
      3 vectors produced by pass  0 Test12= 4.55D-14 3.33D-08 XBig12= 7.74D+00 4.70D-01.
 AX will form     3 AO Fock derivatives at one time.
      3 vectors produced by pass  1 Test12= 4.55D-14 3.33D-08 XBig12= 1.16D-02 1.59D-02.
      3 vectors produced by pass  2 Test12= 4.55D-14 3.33D-08 XBig12= 7.43D-05 2.75D-03.
      3 vectors produced by pass  3 Test12= 4.55D-14 3.33D-08 XBig12= 1.74D-06 3.63D-04.
      3 vectors produced by pass  4 Test12= 4.55D-14 3.33D-08 XBig12= 1.85D-08 2.53D-05.
      3 vectors produced by pass  5 Test12= 4.55D-14 3.33D-08 XBig12= 2.48D-10 3.01D-06.
      3 vectors produced by pass  6 Test12= 4.55D-14 3.33D-08 XBig12= 2.48D-12 3.07D-07.
 Inverted reduced A of dimension    21 with in-core refinement.
 Calculating GIAO nuclear magnetic shielding tensors.
 SCF GIAO Magnetic shielding tensor (ppm):
      1  C    Isotropic =   221.1479   Anisotropy =    28.3823
   XX=   239.0309   YX=     3.6602   ZX=    -1.9934
   XY=     4.1742   YY=   212.9296   ZY=    -0.1258
   XZ=    -5.2708   YZ=    -0.5026   ZZ=   211.4833
   Eigenvalues:   210.9862   212.3882   240.0695
      2  C    Isotropic =   215.0561   Anisotropy =     7.9130
   XX=   219.9867   YX=     0.5083   ZX=     0.9902
   XY=     1.5207   YY=   216.6416   ZY=     1.3650
   XZ=    -0.0685   YZ=     1.5318   ZZ=   208.5398
   Eigenvalues:   208.2819   216.5549   220.3314
      3  C    Isotropic =   187.4892   Anisotropy =    42.5027
   XX=   191.9915   YX=   -15.6945   ZX=     6.9757
   XY=   -14.6587   YY=   202.4330   ZY=    -5.6589
   XZ=    10.7399   YZ=    -8.8130   ZZ=   168.0429
   Eigenvalues:   164.9632   181.6800   215.8243
      4  C    Isotropic =   215.3206   Anisotropy =    19.3406
   XX=   226.4358   YX=    -2.6525   ZX=    -0.3121
   XY=    -5.1150   YY=   218.9759   ZY=    -0.9917
   XZ=     3.7932   YZ=    -0.2773   ZZ=   200.5501
   Eigenvalues:   200.4258   217.3216   228.2143
      5  C    Isotropic =   208.5820   Anisotropy =    14.2937
   XX=   217.0912   YX=     1.3958   ZX=    -3.3033
   XY=     1.2245   YY=   204.4482   ZY=     0.5575
   XZ=    -3.6692   YZ=    -1.3618   ZZ=   204.2066
   Eigenvalues:   203.3191   204.3157   218.1111
      6  C    Isotropic =   215.5817   Anisotropy =    16.7382
   XX=   221.2409   YX=     5.4365   ZX=    -1.3240
   XY=     8.0667   YY=   216.8584   ZY=     5.3198
   XZ=     2.4536   YZ=     4.0159   ZZ=   208.6459
   Eigenvalues:   206.1058   213.8989   226.7405
      7  C    Isotropic =   214.7552   Anisotropy =    22.2533
   XX=   227.0502   YX=    -5.5345   ZX=    -1.8455
   XY=    -7.1797   YY=   213.6364   ZY=    -3.1067
   XZ=    -0.5277   YZ=    -0.6270   ZZ=   203.5791
   Eigenvalues:   202.9904   211.6845   229.5908
      8  O    Isotropic =   364.4426   Anisotropy =    75.9156
   XX=   391.9948   YX=    -9.7403   ZX=   -24.1644
   XY=    14.3124   YY=   331.7975   ZY=     2.3030
   XZ=   -40.5867   YZ=     8.5617   ZZ=   369.5355
   Eigenvalues:   329.7972   348.4776   415.0530
      9  C    Isotropic =   212.2230   Anisotropy =    19.2434
   XX=   224.8821   YX=     1.2274   ZX=     0.7045
   XY=     1.2771   YY=   207.0302   ZY=    -1.1829
   XZ=    -3.1810   YZ=    -0.4730   ZZ=   204.7568
   Eigenvalues:   204.4553   207.1618   225.0520
     10  C    Isotropic =   219.9738   Anisotropy =    27.8523
   XX=   224.3923   YX=    -7.4997   ZX=    10.6108
   XY=   -10.2568   YY=   214.3323   ZY=   -10.2685
   XZ=     7.2792   YZ=    -8.0292   ZZ=   221.1967
   Eigenvalues:   207.4684   213.9110   238.5420
     11  C    Isotropic =   224.2318   Anisotropy =    19.7805
   XX=   219.8839   YX=     1.5744   ZX=    -6.1967
   XY=     0.0261   YY=   216.9811   ZY=    -0.8558
   XZ=    -3.6993   YZ=    -2.6527   ZZ=   235.8304
   Eigenvalues:   216.7552   218.5214   237.4188
     12  H    Isotropic =    32.4397   Anisotropy =    13.9063
   XX=    38.0608   YX=    -5.4644   ZX=     1.8049
   XY=    -5.2605   YY=    32.6215   ZY=    -1.6285
   XZ=     1.7254   YZ=    -1.4823   ZZ=    26.6370
   Eigenvalues:    26.2296    29.3790    41.7106
     13  H    Isotropic =    32.5947   Anisotropy =    11.6990
   XX=    33.4351   YX=     1.4663   ZX=    -4.5478
   XY=     1.3996   YY=    27.6515   ZY=    -2.1794
   XZ=    -4.4670   YZ=    -2.1844   ZZ=    36.6975
   Eigenvalues:    27.1154    30.2747    40.3940
     14  H    Isotropic =    32.3986   Anisotropy =    13.7204
   XX=    35.3607   YX=     5.4376   ZX=     2.9102
   XY=     5.1371   YY=    33.4118   ZY=     4.1820
   XZ=     2.8125   YZ=     3.9848   ZZ=    28.4232
   Eigenvalues:    26.1310    29.5192    41.5455
     15  H    Isotropic =    32.8895   Anisotropy =    10.7058
   XX=    31.7414   YX=     0.1953   ZX=     1.5674
   XY=    -0.0922   YY=    27.5274   ZY=    -1.9837
   XZ=     1.7318   YZ=    -1.9004   ZZ=    39.3997
   Eigenvalues:    27.1956    31.4463    40.0267
     16  H    Isotropic =    32.2171   Anisotropy =     6.2873
   XX=    32.2527   YX=     0.6125   ZX=    -1.2000
   XY=     0.0332   YY=    28.5044   ZY=     0.3567
   XZ=    -1.4885   YZ=     1.4367   ZZ=    35.8941
   Eigenvalues:    28.3348    31.9078    36.4086
     17  H    Isotropic =    32.4852   Anisotropy =    13.1271
   XX=    32.0123   YX=     2.0676   ZX=     1.2215
   XY=     2.2245   YY=    38.1734   ZY=     5.7360
   XZ=     1.1165   YZ=     5.6246   ZZ=    27.2698
   Eigenvalues:    24.8403    31.3787    41.2366
     18  H    Isotropic =    32.7659   Anisotropy =     9.6486
   XX=    32.4199   YX=    -0.6218   ZX=    -1.9015
   XY=    -0.3199   YY=    30.9353   ZY=    -5.4948
   XZ=    -1.8543   YZ=    -5.8557   ZZ=    34.9425
   Eigenvalues:    26.5449    32.5545    39.1983
     19  H    Isotropic =    32.4321   Anisotropy =     9.0191
   XX=    32.4546   YX=    -0.3885   ZX=    -0.2263
   XY=    -0.4024   YY=    26.5428   ZY=    -1.2037
   XZ=     0.2959   YZ=    -1.4230   ZZ=    38.2989
   Eigenvalues:    26.3729    32.4785    38.4449
     20  H    Isotropic =    32.7166   Anisotropy =    11.1437
   XX=    31.5209   YX=     0.2734   ZX=    -3.2012
   XY=     0.1123   YY=    28.1631   ZY=     2.5839
   XZ=    -3.0189   YZ=     2.7278   ZZ=    38.4659
   Eigenvalues:    27.2764    30.7278    40.1458
     21  H    Isotropic =    32.4403   Anisotropy =    14.1247
   XX=    33.9096   YX=    -5.2603   ZX=     0.8734
   XY=    -5.4219   YY=    38.0979   ZY=    -0.8045
   XZ=     1.1186   YZ=    -1.1892   ZZ=    25.3133
   Eigenvalues:    25.1840    30.2800    41.8567
     22  H    Isotropic =    32.3599   Anisotropy =    10.3167
   XX=    31.8144   YX=     0.5070   ZX=    -2.4466
   XY=     0.3522   YY=    30.4497   ZY=    -5.3870
   XZ=    -2.3262   YZ=    -5.6554   ZZ=    34.8157
   Eigenvalues:    26.4973    31.3447    39.2377
     23  H    Isotropic =    31.9656   Anisotropy =    13.0300
   XX=    32.4067   YX=     3.1875   ZX=     1.6260
   XY=     2.9235   YY=    36.9639   ZY=     5.0971
   XZ=     1.9919   YZ=     5.4103   ZZ=    26.5263
   Eigenvalues:    24.3060    30.9385    40.6523
     24  H    Isotropic =    34.6991   Anisotropy =    16.6129
   XX=    39.7916   YX=    -5.2548   ZX=    -6.9354
   XY=    -4.3330   YY=    34.5852   ZY=     0.6785
   XZ=    -7.7271   YZ=     1.9879   ZZ=    29.7204
   Eigenvalues:    25.7151    32.6078    45.7743
     25  H    Isotropic =    32.5018   Anisotropy =    11.6798
   XX=    31.6950   YX=     2.4129   ZX=     1.7402
   XY=     2.1896   YY=    37.8127   ZY=     4.5456
   XZ=     1.4674   YZ=     4.0391   ZZ=    27.9976
   Eigenvalues:    26.2865    30.9306    40.2883
     26  H    Isotropic =    32.7143   Anisotropy =     9.2513
   XX=    32.0936   YX=    -2.5421   ZX=     2.3240
   XY=    -2.7860   YY=    37.8146   ZY=     1.3468
   XZ=     1.7501   YZ=     1.1846   ZZ=    28.2346
   Eigenvalues:    26.8822    32.3788    38.8818
     27  H    Isotropic =    32.2930   Anisotropy =    12.4394
   XX=    30.2626   YX=    -0.8737   ZX=     1.7529
   XY=    -0.7355   YY=    26.5535   ZY=    -2.1763
   XZ=     1.1453   YZ=    -1.8240   ZZ=    40.0629
   Eigenvalues:    26.1752    30.1178    40.5859
     28  H    Isotropic =    32.4516   Anisotropy =    14.7199
   XX=    41.4011   YX=     2.3048   ZX=     3.0650
   XY=     1.8191   YY=    27.5632   ZY=    -0.6286
   XZ=     2.7800   YZ=    -0.8391   ZZ=    28.3905
   Eigenvalues:    26.3839    28.7060    42.2648
     29  H    Isotropic =    33.2239   Anisotropy =     9.6894
   XX=    30.5337   YX=     0.3261   ZX=    -2.5659
   XY=     0.1714   YY=    35.0299   ZY=     4.9266
   XZ=    -2.7083   YZ=     4.6775   ZZ=    34.1081
   Eigenvalues:    27.8914    32.0968    39.6835
     30  H    Isotropic =    32.6190   Anisotropy =    10.9080
   XX=    32.1555   YX=    -2.6560   ZX=     0.6448
   XY=    -2.5864   YY=    30.5601   ZY=    -5.8256
   XZ=     0.8810   YZ=    -6.2214   ZZ=    35.1414
   Eigenvalues:    25.9036    32.0624    39.8910
     31  H    Isotropic =    32.5712   Anisotropy =    14.6472
   XX=    39.0541   YX=     4.3656   ZX=    -4.1104
   XY=     4.1859   YY=    28.1149   ZY=    -2.0109
   XZ=    -4.2289   YZ=    -2.1141   ZZ=    30.5445
   Eigenvalues:    26.5031    28.8745    42.3360
 End of Minotr Frequency-dependent properties file   721 does not exist.
 End of Minotr Frequency-dependent properties file   722 does not exist.

 **********************************************************************

            Population analysis using the SCF density.

 **********************************************************************

 Orbital symmetries:
       Occupied  (A) (A) (A) (A) (A) (A) (A) (A) (A) (A) (A) (A)
                 (A) (A) (A) (A) (A) (A) (A) (A) (A) (A) (A) (A)
                 (A) (A) (A) (A) (A) (A) (A) (A) (A) (A) (A) (A)
                 (A) (A) (A) (A) (A) (A) (A) (A)
       Virtual   (A) (A) (A) (A) (A) (A) (A) (A) (A) (A) (A) (A)
                 (A) (A) (A) (A) (A) (A) (A) (A) (A) (A) (A) (A)
                 (A) (A) (A) (A) (A) (A) (A)
 The electronic state is 1-A.
 Alpha  occ. eigenvalues --  -20.23729 -11.08456 -11.04820 -11.04605 -11.03968
 Alpha  occ. eigenvalues --  -11.03668 -11.03589 -11.03539 -11.03372 -11.03046
 Alpha  occ. eigenvalues --  -11.02963  -1.27891  -1.08216  -1.03911  -0.97069
 Alpha  occ. eigenvalues --   -0.94640  -0.89297  -0.87730  -0.78757  -0.78076
 Alpha  occ. eigenvalues --   -0.73314  -0.71201  -0.62382  -0.60374  -0.59292
 Alpha  occ. eigenvalues --   -0.57580  -0.56570  -0.53911  -0.53503  -0.52962
 Alpha  occ. eigenvalues --   -0.50822  -0.50555  -0.49051  -0.47440  -0.47255
 Alpha  occ. eigenvalues --   -0.45382  -0.44144  -0.43198  -0.42211  -0.41492
 Alpha  occ. eigenvalues --   -0.40051  -0.38104  -0.37385  -0.32532
 Alpha virt. eigenvalues --    0.52778   0.55424   0.56513   0.59227   0.60963
 Alpha virt. eigenvalues --    0.61777   0.63376   0.65529   0.65815   0.67938
 Alpha virt. eigenvalues --    0.68238   0.69874   0.70812   0.71222   0.72517
 Alpha virt. eigenvalues --    0.73169   0.73588   0.74108   0.75688   0.76692
 Alpha virt. eigenvalues --    0.77053   0.77854   0.78148   0.79106   0.79510
 Alpha virt. eigenvalues --    0.81174   0.82185   0.82633   0.83352   0.84534
 Alpha virt. eigenvalues --    0.85859
          Condensed to atoms (all electrons):
              1          2          3          4          5          6
     1  C    4.738904   0.365864   0.000707   0.000746   0.000002  -0.024242
     2  C    0.365864   4.743155  -0.020102  -0.022641  -0.002957   0.364307
     3  C    0.000707  -0.020102   4.741198  -0.021733   0.355459  -0.003456
     4  C    0.000746  -0.022641  -0.021733   4.760129   0.359921   0.363380
     5  C    0.000002  -0.002957   0.355459   0.359921   4.792221  -0.021054
     6  C   -0.024242   0.364307  -0.003456   0.363380  -0.021054   4.755741
     7  C   -0.024148   0.363630   0.360060  -0.003460  -0.023478  -0.024095
     8  O   -0.000001   0.000251   0.266602   0.000236  -0.018693   0.000001
     9  C    0.000000   0.000004  -0.018068  -0.022334   0.358347   0.000653
    10  C    0.000000   0.000000  -0.000109   0.000675  -0.021581  -0.000005
    11  C    0.000000   0.000000  -0.002635  -0.001003  -0.020593   0.000001
    12  H    0.382339  -0.020341  -0.000016   0.000013   0.000000  -0.002240
    13  H    0.382334  -0.020662   0.000008   0.000009   0.000001  -0.002222
    14  H    0.382335  -0.020325   0.000012  -0.000018   0.000000   0.001295
    15  H   -0.024083   0.381681  -0.001839  -0.001810   0.000066  -0.024119
    16  H    0.000002  -0.001528   0.376012  -0.001391  -0.025585   0.000083
    17  H   -0.000016   0.001285   0.001142   0.382604  -0.020889  -0.022177
    18  H    0.000005  -0.001829  -0.001955   0.380868  -0.022039  -0.023263
    19  H   -0.000006   0.000106  -0.024048  -0.023475   0.379591  -0.002124
    20  H   -0.002547  -0.022354   0.000048  -0.022899  -0.001774   0.381330
    21  H   -0.001994  -0.021398   0.000016  -0.021667   0.001205   0.382473
    22  H   -0.002544  -0.021435  -0.022290   0.000098  -0.001937  -0.001783
    23  H   -0.002046  -0.020820  -0.021437   0.000015   0.001158   0.001260
    24  H    0.000000  -0.000042  -0.041200  -0.000027   0.000447  -0.000001
    25  H    0.000000   0.000000   0.001032  -0.004735  -0.023207   0.000040
    26  H    0.000000   0.000000   0.000115  -0.000004  -0.000908   0.000000
    27  H    0.000000   0.000000   0.000020   0.000029  -0.002843  -0.000001
    28  H    0.000000   0.000000  -0.000011  -0.000016   0.001161   0.000000
    29  H    0.000000   0.000000  -0.000521   0.000032  -0.001321   0.000000
    30  H    0.000000   0.000001  -0.000092  -0.000478  -0.001788  -0.000005
    31  H    0.000000   0.000000   0.000028   0.000006   0.001118   0.000000
              7          8          9         10         11         12
     1  C   -0.024148  -0.000001   0.000000   0.000000   0.000000   0.382339
     2  C    0.363630   0.000251   0.000004   0.000000   0.000000  -0.020341
     3  C    0.360060   0.266602  -0.018068  -0.000109  -0.002635  -0.000016
     4  C   -0.003460   0.000236  -0.022334   0.000675  -0.001003   0.000013
     5  C   -0.023478  -0.018693   0.358347  -0.021581  -0.020593   0.000000
     6  C   -0.024095   0.000001   0.000653  -0.000005   0.000001  -0.002240
     7  C    4.767084  -0.020854   0.000551  -0.000005   0.000008   0.001292
     8  O   -0.020854   7.847246  -0.000233  -0.000717  -0.000048   0.000000
     9  C    0.000551  -0.000233   4.744395   0.364048   0.363856   0.000000
    10  C   -0.000005  -0.000717   0.364048   4.743847  -0.025863   0.000000
    11  C    0.000008  -0.000048   0.363856  -0.025863   4.742587   0.000000
    12  H    0.001292   0.000000   0.000000   0.000000   0.000000   0.630740
    13  H   -0.002219   0.000000   0.000000   0.000000   0.000000  -0.021687
    14  H   -0.002233   0.000000   0.000000   0.000000   0.000000  -0.021623
    15  H   -0.024255   0.000002  -0.000003   0.000000   0.000000  -0.002281
    16  H   -0.024798  -0.016293  -0.001554   0.000019  -0.000512   0.000000
    17  H    0.000003  -0.000004  -0.002723   0.000028   0.000054  -0.000001
    18  H    0.000075   0.000001  -0.001720   0.000000  -0.000532   0.000002
    19  H   -0.002239  -0.000550  -0.023796  -0.004192   0.001113   0.000000
    20  H   -0.001781  -0.000001   0.000005   0.000000   0.000000  -0.000008
    21  H    0.001269   0.000000  -0.000014   0.000000   0.000000   0.000236
    22  H    0.379873  -0.000668   0.000003   0.000000   0.000000   0.000018
    23  H    0.381647  -0.000625  -0.000012   0.000000   0.000000   0.000013
    24  H    0.002736   0.258591   0.000093  -0.001119  -0.000197   0.000000
    25  H   -0.000014  -0.000009   0.381997  -0.025769  -0.024678   0.000000
    26  H   -0.000003  -0.000744  -0.020148   0.382459  -0.002636   0.000000
    27  H   -0.000001   0.000020  -0.019973   0.382857   0.001293   0.000000
    28  H    0.000000   0.000011  -0.020299   0.381673  -0.001739   0.000000
    29  H    0.000002  -0.000200  -0.020691  -0.002468   0.381664   0.000000
    30  H   -0.000001   0.000005  -0.019749   0.001319   0.382611   0.000000
    31  H    0.000000   0.000000  -0.019846  -0.002164   0.382670   0.000000
             13         14         15         16         17         18
     1  C    0.382334   0.382335  -0.024083   0.000002  -0.000016   0.000005
     2  C   -0.020662  -0.020325   0.381681  -0.001528   0.001285  -0.001829
     3  C    0.000008   0.000012  -0.001839   0.376012   0.001142  -0.001955
     4  C    0.000009  -0.000018  -0.001810  -0.001391   0.382604   0.380868
     5  C    0.000001   0.000000   0.000066  -0.025585  -0.020889  -0.022039
     6  C   -0.002222   0.001295  -0.024119   0.000083  -0.022177  -0.023263
     7  C   -0.002219  -0.002233  -0.024255  -0.024798   0.000003   0.000075
     8  O    0.000000   0.000000   0.000002  -0.016293  -0.000004   0.000001
     9  C    0.000000   0.000000  -0.000003  -0.001554  -0.002723  -0.001720
    10  C    0.000000   0.000000   0.000000   0.000019   0.000028   0.000000
    11  C    0.000000   0.000000   0.000000  -0.000512   0.000054  -0.000532
    12  H   -0.021687  -0.021623  -0.002281   0.000000  -0.000001   0.000002
    13  H    0.629388  -0.021647   0.001885  -0.000001   0.000000  -0.000001
    14  H   -0.021647   0.630009  -0.002287   0.000001   0.000000   0.000000
    15  H    0.001885  -0.002287   0.652461   0.000273   0.000004   0.000297
    16  H   -0.000001   0.000001   0.000273   0.663268  -0.000009   0.000309
    17  H    0.000000   0.000000   0.000004  -0.000009   0.641595  -0.023455
    18  H   -0.000001   0.000000   0.000297   0.000309  -0.023455   0.647172
    19  H   -0.000001   0.000000   0.000006   0.001818  -0.002408   0.001883
    20  H    0.000348   0.000016   0.001892   0.000003  -0.002827   0.001956
    21  H    0.000001   0.000012  -0.002599  -0.000007  -0.001966  -0.002791
    22  H    0.000350  -0.000015   0.001881   0.001899  -0.000010   0.000004
    23  H   -0.000002   0.000245  -0.002574  -0.002917   0.000002  -0.000009
    24  H    0.000000   0.000000   0.000000  -0.007978   0.000001   0.000002
    25  H    0.000000   0.000000   0.000000  -0.000004   0.000057   0.000034
    26  H    0.000000   0.000000   0.000000   0.000028  -0.000001   0.000000
    27  H    0.000000   0.000000   0.000000  -0.000001   0.000006   0.000000
    28  H    0.000000   0.000000   0.000000  -0.000001  -0.000001   0.000000
    29  H    0.000000   0.000000   0.000000  -0.000780  -0.000001   0.000029
    30  H    0.000000   0.000000   0.000000  -0.000087   0.000036  -0.000352
    31  H    0.000000   0.000000   0.000000   0.000007  -0.000004  -0.000009
             19         20         21         22         23         24
     1  C   -0.000006  -0.002547  -0.001994  -0.002544  -0.002046   0.000000
     2  C    0.000106  -0.022354  -0.021398  -0.021435  -0.020820  -0.000042
     3  C   -0.024048   0.000048   0.000016  -0.022290  -0.021437  -0.041200
     4  C   -0.023475  -0.022899  -0.021667   0.000098   0.000015  -0.000027
     5  C    0.379591  -0.001774   0.001205  -0.001937   0.001158   0.000447
     6  C   -0.002124   0.381330   0.382473  -0.001783   0.001260  -0.000001
     7  C   -0.002239  -0.001781   0.001269   0.379873   0.381647   0.002736
     8  O   -0.000550  -0.000001   0.000000  -0.000668  -0.000625   0.258591
     9  C   -0.023796   0.000005  -0.000014   0.000003  -0.000012   0.000093
    10  C   -0.004192   0.000000   0.000000   0.000000   0.000000  -0.001119
    11  C    0.001113   0.000000   0.000000   0.000000   0.000000  -0.000197
    12  H    0.000000  -0.000008   0.000236   0.000018   0.000013   0.000000
    13  H   -0.000001   0.000348   0.000001   0.000350  -0.000002   0.000000
    14  H    0.000000   0.000016   0.000012  -0.000015   0.000245   0.000000
    15  H    0.000006   0.001892  -0.002599   0.001881  -0.002574   0.000000
    16  H    0.001818   0.000003  -0.000007   0.001899  -0.002917  -0.007978
    17  H   -0.002408  -0.002827  -0.001966  -0.000010   0.000002   0.000001
    18  H    0.001883   0.001956  -0.002791   0.000004  -0.000009   0.000002
    19  H    0.647307   0.000310   0.000012   0.000225   0.000005   0.000005
    20  H    0.000310   0.643089  -0.023383   0.000290   0.000002   0.000000
    21  H    0.000012  -0.023383   0.640830   0.000006  -0.000034   0.000000
    22  H    0.000225   0.000290   0.000006   0.634371  -0.023992   0.000020
    23  H    0.000005   0.000002  -0.000034  -0.023992   0.634704   0.000040
    24  H    0.000005   0.000000   0.000000   0.000020   0.000040   0.611686
    25  H   -0.000819   0.000003  -0.000002  -0.000001   0.000000   0.000003
    26  H    0.000037   0.000000   0.000000   0.000000   0.000000  -0.000942
    27  H    0.000148   0.000000   0.000000   0.000000   0.000000  -0.000004
    28  H    0.000055   0.000000   0.000000   0.000000   0.000000   0.000019
    29  H   -0.000002   0.000000   0.000000   0.000000   0.000001   0.000053
    30  H    0.000009   0.000000   0.000001   0.000000   0.000000  -0.000001
    31  H   -0.000028   0.000000   0.000000   0.000000   0.000000  -0.000004
             25         26         27         28         29         30
     1  C    0.000000   0.000000   0.000000   0.000000   0.000000   0.000000
     2  C    0.000000   0.000000   0.000000   0.000000   0.000000   0.000001
     3  C    0.001032   0.000115   0.000020  -0.000011  -0.000521  -0.000092
     4  C   -0.004735  -0.000004   0.000029  -0.000016   0.000032  -0.000478
     5  C   -0.023207  -0.000908  -0.002843   0.001161  -0.001321  -0.001788
     6  C    0.000040   0.000000  -0.000001   0.000000   0.000000  -0.000005
     7  C   -0.000014  -0.000003  -0.000001   0.000000   0.000002  -0.000001
     8  O   -0.000009  -0.000744   0.000020   0.000011  -0.000200   0.000005
     9  C    0.381997  -0.020148  -0.019973  -0.020299  -0.020691  -0.019749
    10  C   -0.025769   0.382459   0.382857   0.381673  -0.002468   0.001319
    11  C   -0.024678  -0.002636   0.001293  -0.001739   0.381664   0.382611
    12  H    0.000000   0.000000   0.000000   0.000000   0.000000   0.000000
    13  H    0.000000   0.000000   0.000000   0.000000   0.000000   0.000000
    14  H    0.000000   0.000000   0.000000   0.000000   0.000000   0.000000
    15  H    0.000000   0.000000   0.000000   0.000000   0.000000   0.000000
    16  H   -0.000004   0.000028  -0.000001  -0.000001  -0.000780  -0.000087
    17  H    0.000057  -0.000001   0.000006  -0.000001  -0.000001   0.000036
    18  H    0.000034   0.000000   0.000000   0.000000   0.000029  -0.000352
    19  H   -0.000819   0.000037   0.000148   0.000055  -0.000002   0.000009
    20  H    0.000003   0.000000   0.000000   0.000000   0.000000   0.000000
    21  H   -0.000002   0.000000   0.000000   0.000000   0.000000   0.000001
    22  H   -0.000001   0.000000   0.000000   0.000000   0.000000   0.000000
    23  H    0.000000   0.000000   0.000000   0.000000   0.000001   0.000000
    24  H    0.000003  -0.000942  -0.000004   0.000019   0.000053  -0.000001
    25  H    0.653096   0.001965  -0.001741  -0.003627   0.001942  -0.001961
    26  H    0.001965   0.631724  -0.021349  -0.022610   0.000388   0.000017
    27  H   -0.001741  -0.021349   0.626272  -0.021684   0.000014  -0.000036
    28  H   -0.003627  -0.022610  -0.021684   0.634995  -0.000008   0.000015
    29  H    0.001942   0.000388   0.000014  -0.000008   0.640538  -0.021917
    30  H   -0.001961   0.000017  -0.000036   0.000015  -0.021917   0.628805
    31  H   -0.002948  -0.000020   0.000025   0.000130  -0.022187  -0.021705
             31
     1  C    0.000000
     2  C    0.000000
     3  C    0.000028
     4  C    0.000006
     5  C    0.001118
     6  C    0.000000
     7  C    0.000000
     8  O    0.000000
     9  C   -0.019846
    10  C   -0.002164
    11  C    0.382670
    12  H    0.000000
    13  H    0.000000
    14  H    0.000000
    15  H    0.000000
    16  H    0.000007
    17  H   -0.000004
    18  H   -0.000009
    19  H   -0.000028
    20  H    0.000000
    21  H    0.000000
    22  H    0.000000
    23  H    0.000000
    24  H   -0.000004
    25  H   -0.002948
    26  H   -0.000020
    27  H    0.000025
    28  H    0.000130
    29  H   -0.022187
    30  H   -0.021705
    31  H    0.628134
 Mulliken atomic charges:
              1
     1  C   -0.171612
     2  C   -0.023849
     3  C    0.077052
     4  C   -0.101068
     5  C   -0.040051
     6  C   -0.099776
     7  C   -0.104646
     8  O   -0.313326
     9  C   -0.022791
    10  C   -0.172933
    11  C   -0.175419
    12  H    0.053543
    13  H    0.054116
    14  H    0.054222
    15  H    0.045402
    16  H    0.039722
    17  H    0.049675
    18  H    0.045317
    19  H    0.051058
    20  H    0.048284
    21  H    0.049796
    22  H    0.055635
    23  H    0.055374
    24  H    0.177817
    25  H    0.049348
    26  H    0.052632
    27  H    0.056950
    28  H    0.051937
    29  H    0.045435
    30  H    0.055355
    31  H    0.056798
 Sum of Mulliken atomic charges =   0.00000
 Mulliken charges with hydrogens summed into heavy atoms:
              1
     1  C   -0.009731
     2  C    0.021554
     3  C    0.116774
     4  C   -0.006075
     5  C    0.011007
     6  C   -0.001697
     7  C    0.006364
     8  O   -0.135509
     9  C    0.026558
    10  C   -0.011415
    11  C   -0.017830
 Sum of Mulliken charges with hydrogens summed into heavy atoms =   0.00000
 Electronic spatial extent (au):  <R**2>=           2186.5812
 Charge=              0.0000 electrons
 Dipole moment (field-independent basis, Debye):
    X=             -0.3336    Y=             -1.0233    Z=              0.9445  Tot=              1.4320
 Quadrupole moment (field-independent basis, Debye-Ang):
   XX=            -66.4954   YY=            -70.7334   ZZ=            -66.7506
   XY=             -0.3839   XZ=             -1.1346   YZ=              2.2559
 Traceless Quadrupole moment (field-independent basis, Debye-Ang):
   XX=              1.4977   YY=             -2.7402   ZZ=              1.2425
   XY=             -0.3839   XZ=             -1.1346   YZ=              2.2559
 Octapole moment (field-independent basis, Debye-Ang**2):
  XXX=            -11.8745  YYY=              3.3198  ZZZ=             -1.7811  XYY=             -2.5637
  XXY=              6.0078  XXZ=              2.5656  XZZ=             -0.0368  YZZ=              4.8899
  YYZ=              5.2832  XYZ=             -3.6213
 Hexadecapole moment (field-independent basis, Debye-Ang**3):
 XXXX=          -1987.2609 YYYY=           -565.8215 ZZZZ=           -268.0397 XXXY=            -11.6640
 XXXZ=             -1.8980 YYYX=            -12.8505 YYYZ=             11.4820 ZZZX=              0.2762
 ZZZY=             -0.2848 XXYY=           -406.6449 XXZZ=           -377.5964 YYZZ=           -134.0990
 XXYZ=              5.4111 YYXZ=             -3.6538 ZZXY=             -2.8742
 N-N= 6.910292954800D+02 E-N=-2.454005043591D+03  KE= 4.555471052891D+02
 ******************************Gaussian NBO Version 3.1******************************
             N A T U R A L   A T O M I C   O R B I T A L   A N D
          N A T U R A L   B O N D   O R B I T A L   A N A L Y S I S
 ******************************Gaussian NBO Version 3.1******************************
       /RESON  / : Allow strongly delocalized NBO set
       /NLMO   / : Form Natural Localized Molecular Orbitals
       /NMR /    : Analyze NMR Sheilding Tensor 

 Analyzing the SCF density

 Job title: comment                                                         

 Storage needed:     19864 in NPA,     23691 in NBO,     45933 in NLMO (  33549317 available)


 NATURAL POPULATIONS:  Natural atomic orbital occupancies 
                                                          
   NAO  Atom  No  lang   Type(AO)    Occupancy      Energy
 ----------------------------------------------------------
     1    C    1  S      Cor( 1S)     1.99997     -10.96397
     2    C    1  S      Val( 2S)     1.07937      -0.18013
     3    C    1  px     Val( 2p)     0.99268       0.08926
     4    C    1  py     Val( 2p)     1.02768       0.08531
     5    C    1  pz     Val( 2p)     1.02706       0.08552

     6    C    2  S      Cor( 1S)     1.99997     -10.98811
     7    C    2  S      Val( 2S)     1.07800      -0.18975
     8    C    2  px     Val( 2p)     0.95557       0.10907
     9    C    2  py     Val( 2p)     0.96065       0.10888
    10    C    2  pz     Val( 2p)     0.99156       0.10353

    11    C    3  S      Cor( 1S)     1.99989     -11.03355
    12    C    3  S      Val( 2S)     1.08691      -0.21519
    13    C    3  px     Val( 2p)     0.93913       0.08786
    14    C    3  py     Val( 2p)     0.85887       0.12041
    15    C    3  pz     Val( 2p)     0.97086       0.09562

    16    C    4  S      Cor( 1S)     1.99996     -10.97432
    17    C    4  S      Val( 2S)     1.08565      -0.18988
    18    C    4  px     Val( 2p)     0.97499       0.09816
    19    C    4  py     Val( 2p)     0.98900       0.09464
    20    C    4  pz     Val( 2p)     1.01300       0.09422

    21    C    5  S      Cor( 1S)     1.99995     -10.98526
    22    C    5  S      Val( 2S)     1.10394      -0.21006
    23    C    5  px     Val( 2p)     0.95404       0.10795
    24    C    5  py     Val( 2p)     0.96293       0.10618
    25    C    5  pz     Val( 2p)     0.99922       0.09773

    26    C    6  S      Cor( 1S)     1.99996     -10.97328
    27    C    6  S      Val( 2S)     1.08302      -0.18664
    28    C    6  px     Val( 2p)     0.97948       0.09864
    29    C    6  py     Val( 2p)     0.99355       0.09592
    30    C    6  pz     Val( 2p)     1.00678       0.09518

    31    C    7  S      Cor( 1S)     1.99996     -10.97216
    32    C    7  S      Val( 2S)     1.09076      -0.19229
    33    C    7  px     Val( 2p)     0.97360       0.09685
    34    C    7  py     Val( 2p)     0.99208       0.09868
    35    C    7  pz     Val( 2p)     1.02470       0.08918

    36    O    8  S      Cor( 1S)     1.99999     -20.14015
    37    O    8  S      Val( 2S)     1.74902      -0.99793
    38    O    8  px     Val( 2p)     1.39260      -0.13174
    39    O    8  py     Val( 2p)     1.49547      -0.17513
    40    O    8  pz     Val( 2p)     1.69735      -0.26428

    41    C    9  S      Cor( 1S)     1.99996     -10.99228
    42    C    9  S      Val( 2S)     1.08573      -0.19845
    43    C    9  px     Val( 2p)     0.95297       0.11014
    44    C    9  py     Val( 2p)     0.99249       0.09704
    45    C    9  pz     Val( 2p)     0.95103       0.11275

    46    C   10  S      Cor( 1S)     1.99997     -10.96322
    47    C   10  S      Val( 2S)     1.08100      -0.18042
    48    C   10  px     Val( 2p)     1.01311       0.08631
    49    C   10  py     Val( 2p)     1.01514       0.08964
    50    C   10  pz     Val( 2p)     1.01970       0.08470

    51    C   11  S      Cor( 1S)     1.99997     -10.97024
    52    C   11  S      Val( 2S)     1.07934      -0.18673
    53    C   11  px     Val( 2p)     1.02993       0.07588
    54    C   11  py     Val( 2p)     1.02346       0.08035
    55    C   11  pz     Val( 2p)     0.99834       0.08207

    56    H   12  S      Val( 1S)     0.96368       0.07530

    57    H   13  S      Val( 1S)     0.96322       0.07595

    58    H   14  S      Val( 1S)     0.96308       0.07612

    59    H   15  S      Val( 1S)     0.97842       0.06372

    60    H   16  S      Val( 1S)     0.99492       0.04400

    61    H   17  S      Val( 1S)     0.97130       0.07056

    62    H   18  S      Val( 1S)     0.97573       0.06781

    63    H   19  S      Val( 1S)     0.97446       0.07006

    64    H   20  S      Val( 1S)     0.97241       0.07038

    65    H   21  S      Val( 1S)     0.97075       0.07067

    66    H   22  S      Val( 1S)     0.96539       0.07737

    67    H   23  S      Val( 1S)     0.96557       0.07655

    68    H   24  S      Val( 1S)     0.80956       0.08076

    69    H   25  S      Val( 1S)     0.97576       0.06579

    70    H   26  S      Val( 1S)     0.96509       0.07837

    71    H   27  S      Val( 1S)     0.96058       0.07964

    72    H   28  S      Val( 1S)     0.96520       0.07400

    73    H   29  S      Val( 1S)     0.97107       0.06330

    74    H   30  S      Val( 1S)     0.96210       0.07201

    75    H   31  S      Val( 1S)     0.96036       0.07120


 Summary of Natural Population Analysis:                  
                                                          
                                       Natural Population 
                Natural  -----------------------------------------------
    Atom  No    Charge         Core      Valence    Rydberg      Total
 -----------------------------------------------------------------------
      C    1   -0.12676      1.99997     4.12679    0.00000     6.12676
      C    2    0.01424      1.99997     3.98579    0.00000     5.98576
      C    3    0.14433      1.99989     3.85578    0.00000     5.85567
      C    4   -0.06259      1.99996     4.06263    0.00000     6.06259
      C    5   -0.02007      1.99995     4.02012    0.00000     6.02007
      C    6   -0.06280      1.99996     4.06283    0.00000     6.06280
      C    7   -0.08109      1.99996     4.08113    0.00000     6.08109
      O    8   -0.33444      1.99999     6.33444    0.00000     8.33444
      C    9    0.01782      1.99996     3.98222    0.00000     5.98218
      C   10   -0.12893      1.99997     4.12896    0.00000     6.12893
      C   11   -0.13103      1.99997     4.13106    0.00000     6.13103
      H   12    0.03632      0.00000     0.96368    0.00000     0.96368
      H   13    0.03678      0.00000     0.96322    0.00000     0.96322
      H   14    0.03692      0.00000     0.96308    0.00000     0.96308
      H   15    0.02158      0.00000     0.97842    0.00000     0.97842
      H   16    0.00508      0.00000     0.99492    0.00000     0.99492
      H   17    0.02870      0.00000     0.97130    0.00000     0.97130
      H   18    0.02427      0.00000     0.97573    0.00000     0.97573
      H   19    0.02554      0.00000     0.97446    0.00000     0.97446
      H   20    0.02759      0.00000     0.97241    0.00000     0.97241
      H   21    0.02925      0.00000     0.97075    0.00000     0.97075
      H   22    0.03461      0.00000     0.96539    0.00000     0.96539
      H   23    0.03443      0.00000     0.96557    0.00000     0.96557
      H   24    0.19044      0.00000     0.80956    0.00000     0.80956
      H   25    0.02424      0.00000     0.97576    0.00000     0.97576
      H   26    0.03491      0.00000     0.96509    0.00000     0.96509
      H   27    0.03942      0.00000     0.96058    0.00000     0.96058
      H   28    0.03480      0.00000     0.96520    0.00000     0.96520
      H   29    0.02893      0.00000     0.97107    0.00000     0.97107
      H   30    0.03790      0.00000     0.96210    0.00000     0.96210
      H   31    0.03964      0.00000     0.96036    0.00000     0.96036
 =======================================================================
   * Total *    0.00000     21.99956    66.00044    0.00000    88.00000

                                 Natural Population      
 --------------------------------------------------------
   Core                      21.99956 ( 99.9980% of  22)
   Valence                   66.00044 (100.0007% of  66)
   Natural Minimal Basis     88.00000 (100.0000% of  88)
   Natural Rydberg Basis      0.00000 (  0.0000% of  88)
 --------------------------------------------------------

    Atom  No          Natural Electron Configuration
 ----------------------------------------------------------------------------
      C    1      [core]2S( 1.08)2p( 3.05)
      C    2      [core]2S( 1.08)2p( 2.91)
      C    3      [core]2S( 1.09)2p( 2.77)
      C    4      [core]2S( 1.09)2p( 2.98)
      C    5      [core]2S( 1.10)2p( 2.92)
      C    6      [core]2S( 1.08)2p( 2.98)
      C    7      [core]2S( 1.09)2p( 2.99)
      O    8      [core]2S( 1.75)2p( 4.59)
      C    9      [core]2S( 1.09)2p( 2.90)
      C   10      [core]2S( 1.08)2p( 3.05)
      C   11      [core]2S( 1.08)2p( 3.05)
      H   12            1S( 0.96)
      H   13            1S( 0.96)
      H   14            1S( 0.96)
      H   15            1S( 0.98)
      H   16            1S( 0.99)
      H   17            1S( 0.97)
      H   18            1S( 0.98)
      H   19            1S( 0.97)
      H   20            1S( 0.97)
      H   21            1S( 0.97)
      H   22            1S( 0.97)
      H   23            1S( 0.97)
      H   24            1S( 0.81)
      H   25            1S( 0.98)
      H   26            1S( 0.97)
      H   27            1S( 0.96)
      H   28            1S( 0.97)
      H   29            1S( 0.97)
      H   30            1S( 0.96)
      H   31            1S( 0.96)


 NATURAL BOND ORBITAL ANALYSIS:

                       Occupancies       Lewis Structure    Low   High
           Occ.    -------------------  -----------------   occ   occ
  Cycle   Thresh.   Lewis   Non-Lewis     CR  BD  3C  LP    (L)   (NL)   Dev
 =============================================================================
   1(1)    1.90    87.63633   0.36367     11  31   0   2     0      0    0.02
 -----------------------------------------------------------------------------

 Structure accepted: No low occupancy Lewis orbitals

 --------------------------------------------------------
   Core                     21.99956 ( 99.998% of  22)
   Valence Lewis            65.63677 ( 99.450% of  66)
  ==================       ============================
   Total Lewis              87.63633 ( 99.587% of  88)
  -----------------------------------------------------
   Valence non-Lewis         0.36367 (  0.413% of  88)
   Rydberg non-Lewis         0.00000 (  0.000% of  88)
  ==================       ============================
   Total non-Lewis           0.36367 (  0.413% of  88)
 --------------------------------------------------------


       (Occupancy)   Bond orbital/ Coefficients/ Hybrids
 ---------------------------------------------------------------------------------
     1. (1.98899) BD ( 1) C   1 - C   2  
                ( 50.80%)   0.7127* C   1 s( 25.75%)p 2.88( 74.25%)
                                            0.0001  0.5074 -0.8258 -0.1405  0.2021
                ( 49.20%)   0.7015* C   2 s( 25.21%)p 2.97( 74.79%)
                                            0.0000  0.5020  0.8224  0.1453 -0.2247
     2. (1.99497) BD ( 1) C   1 - H  12  
                ( 51.83%)   0.7199* C   1 s( 24.71%)p 3.05( 75.29%)
                                            0.0000  0.4971  0.4744 -0.6966  0.2064
                ( 48.17%)   0.6941* H  12 s(100.00%)
                                            1.0000
     3. (1.99544) BD ( 1) C   1 - H  13  
                ( 51.88%)   0.7203* C   1 s( 24.84%)p 3.03( 75.16%)
                                            0.0000  0.4984  0.0722  0.1529 -0.8503
                ( 48.12%)   0.6937* H  13 s(100.00%)
                                            1.0000
     4. (1.99503) BD ( 1) C   1 - H  14  
                ( 51.86%)   0.7201* C   1 s( 24.70%)p 3.05( 75.30%)
                                            0.0000  0.4970  0.2963  0.6868  0.4399
                ( 48.14%)   0.6938* H  14 s(100.00%)
                                            1.0000
     5. (1.98535) BD ( 1) C   2 - C   6  
                ( 49.67%)   0.7048* C   2 s( 25.05%)p 2.99( 74.95%)
                                            0.0000  0.5005 -0.3005 -0.6901 -0.4278
                ( 50.33%)   0.7094* C   6 s( 25.33%)p 2.95( 74.67%)
                                            0.0001  0.5033  0.2939  0.6972  0.4174
     6. (1.98362) BD ( 1) C   2 - C   7  
                ( 49.50%)   0.7035* C   2 s( 25.05%)p 2.99( 74.95%)
                                            0.0000  0.5005 -0.4811  0.6930 -0.1945
                ( 50.50%)   0.7107* C   7 s( 25.64%)p 2.90( 74.36%)
                                            0.0001  0.5064  0.4718 -0.6986  0.1817
     7. (1.98499) BD ( 1) C   2 - H  15  
                ( 51.02%)   0.7143* C   2 s( 24.70%)p 3.05( 75.30%)
                                            0.0000  0.4970 -0.0437 -0.1497  0.8537
                ( 48.98%)   0.6999* H  15 s(100.00%)
                                            1.0000
     8. (1.98367) BD ( 1) C   3 - C   5  
                ( 49.91%)   0.7065* C   3 s( 26.17%)p 2.82( 73.83%)
                                            0.0001  0.5116 -0.3175 -0.6770 -0.4233
                ( 50.09%)   0.7077* C   5 s( 25.42%)p 2.93( 74.58%)
                                            0.0000  0.5041  0.2741  0.6863  0.4469
     9. (1.98596) BD ( 1) C   3 - C   7  
                ( 49.96%)   0.7068* C   3 s( 26.02%)p 2.84( 73.98%)
                                            0.0000  0.5101  0.8264  0.1249 -0.2031
                ( 50.04%)   0.7074* C   7 s( 25.00%)p 3.00( 75.00%)
                                            0.0001  0.5000 -0.8329 -0.1530  0.1813
    10. (1.98870) BD ( 1) C   3 - O   8  
                ( 41.08%)   0.6409* C   3 s( 22.49%)p 3.45( 77.51%)
                                            0.0000  0.4742 -0.4574  0.7164 -0.2295
                ( 58.92%)   0.7676* O   8 s( 16.42%)p 5.09( 83.58%)
                                            0.0000  0.4052  0.3991 -0.7738  0.2789
    11. (1.98866) BD ( 1) C   3 - H  16  
                ( 50.51%)   0.7107* C   3 s( 25.32%)p 2.95( 74.68%)
                                            0.0000  0.5032 -0.0839 -0.1135  0.8526
                ( 49.49%)   0.7035* H  16 s(100.00%)
                                            1.0000
    12. (1.98323) BD ( 1) C   4 - C   5  
                ( 50.51%)   0.7107* C   4 s( 25.29%)p 2.95( 74.71%)
                                            0.0001  0.5029 -0.4771  0.6968 -0.1840
                ( 49.49%)   0.7035* C   5 s( 24.63%)p 3.06( 75.37%)
                                            0.0000  0.4963  0.4797 -0.6926  0.2095
    13. (1.98932) BD ( 1) C   4 - C   6  
                ( 50.03%)   0.7073* C   4 s( 25.18%)p 2.97( 74.82%)
                                            0.0000  0.5018  0.8307  0.1587 -0.1814
                ( 49.97%)   0.7069* C   6 s( 25.11%)p 2.98( 74.89%)
                                            0.0000  0.5011 -0.8366 -0.1203  0.1859
    14. (1.98971) BD ( 1) C   4 - H  17  
                ( 51.41%)   0.7170* C   4 s( 24.85%)p 3.02( 75.15%)
                                            0.0000  0.4985 -0.2756 -0.6731 -0.4717
                ( 48.59%)   0.6971* H  17 s(100.00%)
                                            1.0000
    15. (1.99036) BD ( 1) C   4 - H  18  
                ( 51.25%)   0.7159* C   4 s( 24.67%)p 3.05( 75.33%)
                                            0.0000  0.4967 -0.0796 -0.1903  0.8431
                ( 48.75%)   0.6982* H  18 s(100.00%)
                                            1.0000
    16. (1.97900) BD ( 1) C   5 - C   9  
                ( 49.86%)   0.7061* C   5 s( 25.44%)p 2.93( 74.56%)
                                            0.0001  0.5044 -0.8292 -0.1578  0.1819
                ( 50.14%)   0.7081* C   9 s( 25.53%)p 2.92( 74.47%)
                                            0.0001  0.5053  0.8273  0.2219 -0.1046
    17. (1.98369) BD ( 1) C   5 - H  19  
                ( 51.19%)   0.7155* C   5 s( 24.51%)p 3.08( 75.49%)
                                            0.0000  0.4951  0.0848  0.1562 -0.8505
                ( 48.81%)   0.6986* H  19 s(100.00%)
                                            1.0000
    18. (1.99067) BD ( 1) C   6 - H  20  
                ( 51.41%)   0.7170* C   6 s( 24.69%)p 3.05( 75.31%)
                                            0.0000  0.4969  0.0910  0.1150 -0.8553
                ( 48.59%)   0.6971* H  20 s(100.00%)
                                            1.0000
    19. (1.98975) BD ( 1) C   6 - H  21  
                ( 51.43%)   0.7172* C   6 s( 24.87%)p 3.02( 75.13%)
                                            0.0000  0.4987  0.4533 -0.6973  0.2442
                ( 48.57%)   0.6969* H  21 s(100.00%)
                                            1.0000
    20. (1.98973) BD ( 1) C   7 - H  22  
                ( 51.75%)   0.7193* C   7 s( 24.57%)p 3.07( 75.43%)
                                            0.0000  0.4957  0.0786  0.1931 -0.8431
                ( 48.25%)   0.6946* H  22 s(100.00%)
                                            1.0000
    21. (1.98927) BD ( 1) C   7 - H  23  
                ( 51.69%)   0.7189* C   7 s( 24.79%)p 3.03( 75.21%)
                                            0.0000  0.4979  0.2783  0.6718  0.4726
                ( 48.31%)   0.6951* H  23 s(100.00%)
                                            1.0000
    22. (1.98937) BD ( 1) O   8 - H  24  
                ( 59.54%)   0.7716* O   8 s( 16.73%)p 4.98( 83.27%)
                                            0.0000 -0.4091  0.7260 -0.0385 -0.5515
                ( 40.46%)   0.6361* H  24 s(100.00%)
                                           -1.0000
    23. (1.98971) BD ( 1) C   9 - C  10  
                ( 49.11%)   0.7008* C   9 s( 25.05%)p 2.99( 74.95%)
                                            0.0000  0.5005 -0.5075  0.5431 -0.4438
                ( 50.89%)   0.7134* C  10 s( 25.85%)p 2.87( 74.15%)
                                            0.0001  0.5084  0.5393 -0.4904  0.4584
    24. (1.99026) BD ( 1) C   9 - C  11  
                ( 48.83%)   0.6988* C   9 s( 25.26%)p 2.96( 74.74%)
                                            0.0000  0.5026 -0.2083  0.0274  0.8386
                ( 51.17%)   0.7153* C  11 s( 25.86%)p 2.87( 74.14%)
                                            0.0001  0.5086  0.2430  0.0060 -0.8260
    25. (1.98360) BD ( 1) C   9 - H  25  
                ( 51.09%)   0.7148* C   9 s( 24.15%)p 3.14( 75.85%)
                                            0.0000  0.4915 -0.1208 -0.8093 -0.2981
                ( 48.91%)   0.6993* H  25 s(100.00%)
                                            1.0000
    26. (1.99478) BD ( 1) C  10 - H  26  
                ( 51.82%)   0.7198* C  10 s( 24.96%)p 3.01( 75.04%)
                                            0.0000  0.4996 -0.0069  0.8063  0.3166
                ( 48.18%)   0.6941* H  26 s(100.00%)
                                            1.0000
    27. (1.99475) BD ( 1) C  10 - H  27  
                ( 51.98%)   0.7210* C  10 s( 24.83%)p 3.03( 75.17%)
                                            0.0000  0.4983  0.2523  0.0190 -0.8292
                ( 48.02%)   0.6930* H  27 s(100.00%)
                                            1.0000
    28. (1.99474) BD ( 1) C  10 - H  28  
                ( 51.74%)   0.7193* C  10 s( 24.36%)p 3.11( 75.64%)
                                            0.0000  0.4935 -0.8034 -0.3302  0.0446
                ( 48.26%)   0.6947* H  28 s(100.00%)
                                            1.0000
    29. (1.99447) BD ( 1) C  11 - H  29  
                ( 51.48%)   0.7175* C  11 s( 24.73%)p 3.04( 75.27%)
                                            0.0000  0.4973  0.0468  0.8028  0.3258
                ( 48.52%)   0.6965* H  29 s(100.00%)
                                            1.0000
    30. (1.99449) BD ( 1) C  11 - H  30  
                ( 51.92%)   0.7205* C  11 s( 24.83%)p 3.03( 75.17%)
                                            0.0000  0.4983  0.5192 -0.5238  0.4557
                ( 48.08%)   0.6934* H  30 s(100.00%)
                                            1.0000
    31. (1.99440) BD ( 1) C  11 - H  31  
                ( 51.97%)   0.7209* C  11 s( 24.58%)p 3.07( 75.42%)
                                            0.0000  0.4958 -0.8180 -0.2848  0.0625
                ( 48.03%)   0.6930* H  31 s(100.00%)
                                            1.0000
    32. (1.99997) CR ( 1) C   1           s(100.00%)
                                            1.0000  0.0000  0.0001  0.0000  0.0000
    33. (1.99997) CR ( 1) C   2           s(100.00%)
                                            1.0000  0.0000  0.0000  0.0000  0.0000
    34. (1.99989) CR ( 1) C   3           s(100.00%)
                                            1.0000  0.0000  0.0000  0.0001  0.0000
    35. (1.99996) CR ( 1) C   4           s(100.00%)
                                            1.0000 -0.0001  0.0000 -0.0001  0.0000
    36. (1.99995) CR ( 1) C   5           s(100.00%)
                                            1.0000  0.0000  0.0000  0.0000  0.0000
    37. (1.99996) CR ( 1) C   6           s(100.00%)
                                            1.0000  0.0000  0.0000 -0.0001  0.0000
    38. (1.99996) CR ( 1) C   7           s(100.00%)
                                            1.0000 -0.0001  0.0000  0.0001  0.0000
    39. (1.99999) CR ( 1) O   8           s(100.00%)
                                            1.0000  0.0000  0.0000  0.0000  0.0000
    40. (1.99996) CR ( 1) C   9           s(100.00%)
                                            1.0000  0.0000 -0.0001  0.0000  0.0000
    41. (1.99997) CR ( 1) C  10           s(100.00%)
                                            1.0000  0.0000 -0.0001  0.0000 -0.0001
    42. (1.99997) CR ( 1) C  11           s(100.00%)
                                            1.0000  0.0000  0.0000  0.0000  0.0001
    43. (1.99350) LP ( 1) O   8           s( 66.58%)p 0.50( 33.42%)
                                            0.0000  0.8160  0.1310  0.3305 -0.4559
    44. (1.97258) LP ( 2) O   8           s(  0.27%)p99.99( 99.73%)
                                            0.0000  0.0521  0.5445  0.5390  0.6405
    45. (0.01001) BD*( 1) C   1 - C   2  
                ( 49.20%)   0.7015* C   1 s( 25.75%)p 2.88( 74.25%)
                                           -0.0001 -0.5074  0.8258  0.1405 -0.2021
                ( 50.80%)  -0.7127* C   2 s( 25.21%)p 2.97( 74.79%)
                                            0.0000 -0.5020 -0.8224 -0.1453  0.2247
    46. (0.00511) BD*( 1) C   1 - H  12  
                ( 48.17%)   0.6941* C   1 s( 24.71%)p 3.05( 75.29%)
                                            0.0000 -0.4971 -0.4744  0.6966 -0.2064
                ( 51.83%)  -0.7199* H  12 s(100.00%)
                                           -1.0000
    47. (0.00586) BD*( 1) C   1 - H  13  
                ( 48.12%)   0.6937* C   1 s( 24.84%)p 3.03( 75.16%)
                                            0.0000 -0.4984 -0.0722 -0.1529  0.8503
                ( 51.88%)  -0.7203* H  13 s(100.00%)
                                           -1.0000
    48. (0.00513) BD*( 1) C   1 - H  14  
                ( 48.14%)   0.6938* C   1 s( 24.70%)p 3.05( 75.30%)
                                            0.0000 -0.4970 -0.2963 -0.6868 -0.4399
                ( 51.86%)  -0.7201* H  14 s(100.00%)
                                           -1.0000
    49. (0.01591) BD*( 1) C   2 - C   6  
                ( 50.33%)   0.7094* C   2 s( 25.05%)p 2.99( 74.95%)
                                            0.0000  0.5005 -0.3005 -0.6901 -0.4278
                ( 49.67%)  -0.7048* C   6 s( 25.33%)p 2.95( 74.67%)
                                            0.0001  0.5033  0.2939  0.6972  0.4174
    50. (0.01466) BD*( 1) C   2 - C   7  
                ( 50.50%)   0.7107* C   2 s( 25.05%)p 2.99( 74.95%)
                                            0.0000  0.5005 -0.4811  0.6930 -0.1945
                ( 49.50%)  -0.7035* C   7 s( 25.64%)p 2.90( 74.36%)
                                            0.0001  0.5064  0.4718 -0.6986  0.1817
    51. (0.01212) BD*( 1) C   2 - H  15  
                ( 48.98%)   0.6999* C   2 s( 24.70%)p 3.05( 75.30%)
                                            0.0000 -0.4970  0.0437  0.1497 -0.8537
                ( 51.02%)  -0.7143* H  15 s(100.00%)
                                           -1.0000
    52. (0.03541) BD*( 1) C   3 - C   5  
                ( 50.09%)   0.7077* C   3 s( 26.17%)p 2.82( 73.83%)
                                            0.0001  0.5116 -0.3175 -0.6770 -0.4233
                ( 49.91%)  -0.7065* C   5 s( 25.42%)p 2.93( 74.58%)
                                            0.0000  0.5041  0.2741  0.6863  0.4469
    53. (0.02268) BD*( 1) C   3 - C   7  
                ( 50.04%)   0.7074* C   3 s( 26.02%)p 2.84( 73.98%)
                                            0.0000  0.5101  0.8264  0.1249 -0.2031
                ( 49.96%)  -0.7068* C   7 s( 25.00%)p 3.00( 75.00%)
                                            0.0001  0.5000 -0.8329 -0.1530  0.1813
    54. (0.02141) BD*( 1) C   3 - O   8  
                ( 58.92%)   0.7676* C   3 s( 22.49%)p 3.45( 77.51%)
                                            0.0000  0.4742 -0.4574  0.7164 -0.2295
                ( 41.08%)  -0.6409* O   8 s( 16.42%)p 5.09( 83.58%)
                                            0.0000  0.4052  0.3991 -0.7738  0.2789
    55. (0.02117) BD*( 1) C   3 - H  16  
                ( 49.49%)   0.7035* C   3 s( 25.32%)p 2.95( 74.68%)
                                            0.0000 -0.5032  0.0839  0.1135 -0.8526
                ( 50.51%)  -0.7107* H  16 s(100.00%)
                                           -1.0000
    56. (0.01543) BD*( 1) C   4 - C   5  
                ( 49.49%)   0.7035* C   4 s( 25.29%)p 2.95( 74.71%)
                                           -0.0001 -0.5029  0.4771 -0.6968  0.1840
                ( 50.51%)  -0.7107* C   5 s( 24.63%)p 3.06( 75.37%)
                                            0.0000 -0.4963 -0.4797  0.6926 -0.2095
    57. (0.01144) BD*( 1) C   4 - C   6  
                ( 49.97%)   0.7069* C   4 s( 25.18%)p 2.97( 74.82%)
                                            0.0000 -0.5018 -0.8307 -0.1587  0.1814
                ( 50.03%)  -0.7073* C   6 s( 25.11%)p 2.98( 74.89%)
                                            0.0000 -0.5011  0.8366  0.1203 -0.1859
    58. (0.00878) BD*( 1) C   4 - H  17  
                ( 48.59%)   0.6971* C   4 s( 24.85%)p 3.02( 75.15%)
                                            0.0000 -0.4985  0.2756  0.6731  0.4717
                ( 51.41%)  -0.7170* H  17 s(100.00%)
                                           -1.0000
    59. (0.01056) BD*( 1) C   4 - H  18  
                ( 48.75%)   0.6982* C   4 s( 24.67%)p 3.05( 75.33%)
                                            0.0000 -0.4967  0.0796  0.1903 -0.8431
                ( 51.25%)  -0.7159* H  18 s(100.00%)
                                           -1.0000
    60. (0.02266) BD*( 1) C   5 - C   9  
                ( 50.14%)   0.7081* C   5 s( 25.44%)p 2.93( 74.56%)
                                            0.0001  0.5044 -0.8292 -0.1578  0.1819
                ( 49.86%)  -0.7061* C   9 s( 25.53%)p 2.92( 74.47%)
                                            0.0001  0.5053  0.8273  0.2219 -0.1046
    61. (0.01219) BD*( 1) C   5 - H  19  
                ( 48.81%)   0.6986* C   5 s( 24.51%)p 3.08( 75.49%)
                                            0.0000 -0.4951 -0.0848 -0.1562  0.8505
                ( 51.19%)  -0.7155* H  19 s(100.00%)
                                           -1.0000
    62. (0.00998) BD*( 1) C   6 - H  20  
                ( 48.59%)   0.6971* C   6 s( 24.69%)p 3.05( 75.31%)
                                            0.0000 -0.4969 -0.0910 -0.1150  0.8553
                ( 51.41%)  -0.7170* H  20 s(100.00%)
                                           -1.0000
    63. (0.00859) BD*( 1) C   6 - H  21  
                ( 48.57%)   0.6969* C   6 s( 24.87%)p 3.02( 75.13%)
                                            0.0000 -0.4987 -0.4533  0.6973 -0.2442
                ( 51.43%)  -0.7172* H  21 s(100.00%)
                                           -1.0000
    64. (0.01019) BD*( 1) C   7 - H  22  
                ( 48.25%)   0.6946* C   7 s( 24.57%)p 3.07( 75.43%)
                                            0.0000 -0.4957 -0.0786 -0.1931  0.8431
                ( 51.75%)  -0.7193* H  22 s(100.00%)
                                           -1.0000
    65. (0.00876) BD*( 1) C   7 - H  23  
                ( 48.31%)   0.6951* C   7 s( 24.79%)p 3.03( 75.21%)
                                            0.0000 -0.4979 -0.2783 -0.6718 -0.4726
                ( 51.69%)  -0.7189* H  23 s(100.00%)
                                           -1.0000
    66. (0.00792) BD*( 1) O   8 - H  24  
                ( 40.46%)   0.6361* O   8 s( 16.73%)p 4.98( 83.27%)
                                            0.0000  0.4091 -0.7260  0.0385  0.5515
                ( 59.54%)  -0.7716* H  24 s(100.00%)
                                            1.0000
    67. (0.01053) BD*( 1) C   9 - C  10  
                ( 50.89%)   0.7134* C   9 s( 25.05%)p 2.99( 74.95%)
                                            0.0000  0.5005 -0.5075  0.5431 -0.4438
                ( 49.11%)  -0.7008* C  10 s( 25.85%)p 2.87( 74.15%)
                                            0.0001  0.5084  0.5393 -0.4904  0.4584
    68. (0.01090) BD*( 1) C   9 - C  11  
                ( 51.17%)   0.7153* C   9 s( 25.26%)p 2.96( 74.74%)
                                            0.0000  0.5026 -0.2083  0.0274  0.8386
                ( 48.83%)  -0.6988* C  11 s( 25.86%)p 2.87( 74.14%)
                                            0.0001  0.5086  0.2430  0.0060 -0.8260
    69. (0.01097) BD*( 1) C   9 - H  25  
                ( 48.91%)   0.6993* C   9 s( 24.15%)p 3.14( 75.85%)
                                            0.0000 -0.4915  0.1208  0.8093  0.2981
                ( 51.09%)  -0.7148* H  25 s(100.00%)
                                           -1.0000
    70. (0.00762) BD*( 1) C  10 - H  26  
                ( 48.18%)   0.6941* C  10 s( 24.96%)p 3.01( 75.04%)
                                            0.0000 -0.4996  0.0069 -0.8063 -0.3166
                ( 51.82%)  -0.7198* H  26 s(100.00%)
                                           -1.0000
    71. (0.00526) BD*( 1) C  10 - H  27  
                ( 48.02%)   0.6930* C  10 s( 24.83%)p 3.03( 75.17%)
                                            0.0000 -0.4983 -0.2523 -0.0190  0.8292
                ( 51.98%)  -0.7210* H  27 s(100.00%)
                                           -1.0000
    72. (0.00488) BD*( 1) C  10 - H  28  
                ( 48.26%)   0.6947* C  10 s( 24.36%)p 3.11( 75.64%)
                                            0.0000 -0.4935  0.8034  0.3302 -0.0446
[...]
   21       4.9101       -1.0528       5.9629        -6.1855      11.0956
   38     200.0154       -0.0022     200.0176         0.0025     200.0130
 Sum      213.8531      -24.8664     238.7195       -27.7206     241.5737

 Contributions to Isotropic shielding for atom    8 (   364.4426 ppm):
                         Standard Origin              Atomic Origin
 NLMO      Total    Paramagnetic  Diamagnetic   Paramagnetic  Diamagnetic
   10      27.1768       10.2601      16.9167        16.6704      10.5064
   11      -0.7953       -1.2332       0.4379        -1.9878       1.1925
   21      -0.0822       -0.5627       0.4805        -1.0220       0.9399
   22      23.1756       11.9744      11.2013         8.7393      14.4364
   26      -0.3244       -1.2834       0.9590        -0.9063       0.5819
   39     271.1881       -0.0063     271.1944        -0.0037     271.1917
   43      33.5131       -0.1309      33.6440        -3.9224      37.4355
   44       8.8074      -29.4123      38.2198       -31.0740      39.8814
 Sum      362.6592      -10.3943     373.0535       -13.5066     376.1657

 Contributions to Isotropic shielding for atom    9 (   212.2230 ppm):
                         Standard Origin              Atomic Origin
 NLMO      Total    Paramagnetic  Diamagnetic   Paramagnetic  Diamagnetic
   10      -0.0399       -0.1383       0.0984        -1.0419       1.0020
   14      -0.1626       -0.5146       0.3519        -1.0578       0.8952
   16       5.2349      -10.2739      15.5088        -2.6146       7.8495
   23      -1.8505       -5.0365       3.1860        -9.3819       7.5314
   24      -0.7175       -6.0404       5.3228        -8.1387       7.4212
   25       5.1004       -1.2750       6.3754        -5.7774      10.8778
   26       1.0018       -0.2877       1.2895        -0.0086       1.0103
   27       0.6987       -0.6425       1.3412        -0.3347       1.0334
   28       0.6207       -0.3263       0.9469        -0.4114       1.0321
   29       0.9297       -0.2663       1.1961        -0.0954       1.0251
   30       0.6372       -0.5805       1.2176        -0.3868       1.0239
   31       0.5901       -0.2199       0.8099        -0.4503       1.0403
   40     199.9266       -0.0021     199.9287         0.0025     199.9242
 Sum      211.9693      -25.6040     237.5733       -29.6970     241.6664

 Contributions to Isotropic shielding for atom   10 (   219.9738 ppm):
                         Standard Origin              Atomic Origin
 NLMO      Total    Paramagnetic  Diamagnetic   Paramagnetic  Diamagnetic
   17      -0.2712       -0.1167      -0.1545        -1.2261       0.9549
   23       4.1104      -11.3694      15.4798        -3.8410       7.9514
   24      -0.5252        0.0153      -0.5405        -1.1911       0.6659
   25       0.2890        0.1929       0.0961        -0.7779       1.0669
   26       6.0621       -4.4943      10.5564        -5.0750      11.1372
   27       5.5245       -4.6837      10.2082        -5.6479      11.1723
   28       4.4388        2.6383       1.8005        -6.6073      11.0461
   41     200.0768       -0.0037     200.0805         0.0021     200.0747
 Sum      219.7052      -17.8212     237.5264       -24.3642     244.0694

 Contributions to Isotropic shielding for atom   11 (   224.2318 ppm):
                         Standard Origin              Atomic Origin
 NLMO      Total    Paramagnetic  Diamagnetic   Paramagnetic  Diamagnetic
   23      -0.4252        0.0330      -0.4582        -1.0884       0.6632
   24       4.0413       -9.7250      13.7663        -4.0203       8.0616
   29       6.7986       -4.3125      11.1111        -4.1964      10.9949
   30       6.8351       -4.9615      11.7966        -4.3097      11.1448
   31       5.8198        3.6658       2.1540        -5.3212      11.1409
   42     200.0744       -0.0025     200.0769         0.0016     200.0728
 Sum      223.1439      -15.3027     238.4466       -18.9343     242.0782

 Contributions to Isotropic shielding for atom   12 (    32.4397 ppm):
                         Standard Origin              Atomic Origin
 NLMO      Total    Paramagnetic  Diamagnetic   Paramagnetic  Diamagnetic
    1       1.4113       -0.5062       1.9174         0.4137       0.9976
    2      26.3611        0.1234      26.2377         0.4407      25.9204
    3       1.9142        1.6932       0.2211         0.0709       1.8434
    4       1.9106        2.2795      -0.3689         0.0708       1.8398
    5      -0.1668        0.7997      -0.9666        -1.0644       0.8975
 Sum       31.4304        4.3897      27.0407        -0.0683      31.4987

 Contributions to Isotropic shielding for atom   13 (    32.5947 ppm):
                         Standard Origin              Atomic Origin
 NLMO      Total    Paramagnetic  Diamagnetic   Paramagnetic  Diamagnetic
    1       1.6617       -1.3127       2.9744         0.7715       0.8902
    2       1.9312        1.9413      -0.0100         0.1056       1.8256
    3      26.3201        0.2828      26.0373         0.4364      25.8837
    4       1.9556        1.6509       0.3048         0.1299       1.8257
 Sum       31.8686        2.5623      29.3064         1.4435      30.4252

 Contributions to Isotropic shielding for atom   14 (    32.3986 ppm):
                         Standard Origin              Atomic Origin
 NLMO      Total    Paramagnetic  Diamagnetic   Paramagnetic  Diamagnetic
    1       1.4865       -0.7668       2.2532         0.4909       0.9956
    2       1.8889        2.3426      -0.4537         0.0496       1.8393
    3       1.9310        1.4767       0.4543         0.0872       1.8438
    4      26.3358        0.1736      26.1622         0.4310      25.9048
    6      -0.1306        0.6692      -0.7997        -1.0224       0.8918
 Sum       31.5116        3.8953      27.6162         0.0363      31.4752

 Contributions to Isotropic shielding for atom   15 (    32.8895 ppm):
                         Standard Origin              Atomic Origin
 NLMO      Total    Paramagnetic  Diamagnetic   Paramagnetic  Diamagnetic
    1       0.7836        2.2331      -1.4494        -0.1622       0.9458
    2       0.2657       -0.9193       1.1850        -0.6924       0.9581
    4       0.2603       -0.9679       1.2282        -0.6986       0.9589
    5       1.4730        0.4100       1.0631         0.6122       0.8609
    6       1.5562        0.0497       1.5066         0.6935       0.8627
    7      26.4830        0.0682      26.4148         0.3786      26.1044
 Sum       30.8219        0.8736      29.9482         0.1311      30.6908

 Contributions to Isotropic shielding for atom   16 (    32.2171 ppm):
                         Standard Origin              Atomic Origin
 NLMO      Total    Paramagnetic  Diamagnetic   Paramagnetic  Diamagnetic
    8       1.0301        0.0061       1.0240         0.1326       0.8975
    9       0.8486        0.4471       0.4014        -0.2314       1.0800
   10       0.5640        0.8793      -0.3153        -0.8480       1.4120
   11      26.7706        0.4042      26.3665         0.7162      26.0544
   22       0.0993       -1.1558       1.2551        -0.9912       1.0905
   29      -0.2346       -1.3011       1.0665        -1.0265       0.7919
 Sum       29.0780       -0.7203      29.7983        -2.2484      31.3263

 Contributions to Isotropic shielding for atom   17 (    32.4852 ppm):
                         Standard Origin              Atomic Origin
 NLMO      Total    Paramagnetic  Diamagnetic   Paramagnetic  Diamagnetic
   12       1.3306        0.4685       0.8621         0.3942       0.9365
   13       0.9788        1.3426      -0.3638        -0.0551       1.0339
   14      26.4876        0.0756      26.4120         0.4936      25.9940
   15       2.0536        1.3183       0.7353         0.3105       1.7431
   18       0.2041       -0.3714       0.5755        -0.8040       1.0081
   25      -0.1894       -1.1213       0.9319        -0.8894       0.7000
 Sum       30.8654        1.7123      29.1531        -0.5502      31.4156

 Contributions to Isotropic shielding for atom   18 (    32.7659 ppm):
                         Standard Origin              Atomic Origin
 NLMO      Total    Paramagnetic  Diamagnetic   Paramagnetic  Diamagnetic
   12       1.3891       -0.0190       1.4082         0.4880       0.9012
   13       1.0804        0.8780       0.2024         0.1339       0.9465
   14       1.9719        1.4900       0.4819         0.2371       1.7348
   15      26.5151        0.1761      26.3390         0.4144      26.1007
   30      -0.3694       -1.2596       0.8901        -0.7920       0.4226
 Sum       30.5871        1.2655      29.3216         0.4814      30.1058

 Contributions to Isotropic shielding for atom   19 (    32.4321 ppm):
                         Standard Origin              Atomic Origin
 NLMO      Total    Paramagnetic  Diamagnetic   Paramagnetic  Diamagnetic
    8       1.3357        0.5619       0.7738         0.3870       0.9486
   10       0.0845       -0.4051       0.4895        -1.2463       1.3308
   12       1.1740        0.7914       0.3826         0.2338       0.9401
   16       1.0504        1.2785      -0.2281        -0.0428       1.0931
   17      26.3657        0.0958      26.2699         0.4388      25.9269
   23      -0.0360       -0.7695       0.7335        -1.0725       1.0365
   27      -0.1622       -1.6016       1.4394        -1.0558       0.8936
 Sum       29.8120       -0.0486      29.8606        -2.3577      32.1697

 Contributions to Isotropic shielding for atom   20 (    32.7166 ppm):
                         Standard Origin              Atomic Origin
 NLMO      Total    Paramagnetic  Diamagnetic   Paramagnetic  Diamagnetic
    3      -0.0443       -1.3042       1.2598        -0.9406       0.8963
    5       1.2423        0.5956       0.6467         0.4130       0.8293
   13       1.3793        0.0068       1.3725         0.4634       0.9159
   18      26.4466        0.1856      26.2611         0.4419      26.0048
   19       1.9351        1.9889      -0.0538         0.1877       1.7474
 Sum       30.9590        1.4727      29.4863         0.5653      30.3937

 Contributions to Isotropic shielding for atom   21 (    32.4403 ppm):
                         Standard Origin              Atomic Origin
 NLMO      Total    Paramagnetic  Diamagnetic   Paramagnetic  Diamagnetic
    2      -0.0770       -1.4321       1.3551        -0.9601       0.8831
    5       0.9910        1.2189      -0.2280         0.0800       0.9109
   13       1.1989        0.7451       0.4537         0.2098       0.9891
   15       0.1797        0.1615       0.0182        -0.8309       1.0106
   18       1.9874        1.6645       0.3229         0.2362       1.7512
   19      26.4868        0.0002      26.4866         0.4920      25.9948
 Sum       30.7667        2.3582      28.4085        -0.7730      31.5397

 Contributions to Isotropic shielding for atom   22 (    32.3599 ppm):
                         Standard Origin              Atomic Origin
 NLMO      Total    Paramagnetic  Diamagnetic   Paramagnetic  Diamagnetic
    3      -0.0417       -1.4139       1.3722        -0.9377       0.8960
    6       1.0973        0.8346       0.2627         0.2575       0.8398
    9       1.3850        0.1256       1.2594         0.5667       0.8183
   10       0.0776       -0.1992       0.2769        -1.5314       1.6090
   20      26.2261        0.1864      26.0397         0.4284      25.7978
   21       1.9751        1.6369       0.3382         0.1411       1.8340
 Sum       30.7194        1.1704      29.5490        -1.0754      31.7948

 Contributions to Isotropic shielding for atom   23 (    31.9656 ppm):
                         Standard Origin              Atomic Origin
 NLMO      Total    Paramagnetic  Diamagnetic   Paramagnetic  Diamagnetic
    4      -0.0844       -1.5278       1.4435        -0.9680       0.8836
    6       0.9523        1.2509      -0.2986         0.0249       0.9274
    9       1.2231        0.5289       0.6941         0.3050       0.9181
   10       0.0057        0.0765      -0.0708        -1.4971       1.5029
   20       1.9932        1.4530       0.5401         0.1391       1.8541
   21      26.2970        0.0586      26.2384         0.4616      25.8354
 Sum       30.3869        1.8401      28.5467        -1.5345      31.9213

 Contributions to Isotropic shielding for atom   24 (    34.6991 ppm):
                         Standard Origin              Atomic Origin
 NLMO      Total    Paramagnetic  Diamagnetic   Paramagnetic  Diamagnetic
   10       1.5055        1.6770      -0.1716         0.7533       0.7521
   11      -0.0835        0.0992      -0.1827        -1.2263       1.1428
   22      22.9735       -0.5396      23.5131        -0.1855      23.1590
   26      -0.4546       -1.5956       1.1411        -0.6504       0.1959
   43       3.9706        1.1582       2.8123         2.0425       1.9281
   44       5.5346        2.5283       3.0063         2.2777       3.2569
 Sum       33.4461        3.3276      30.1185         3.0113      30.4349

 Contributions to Isotropic shielding for atom   25 (    32.5018 ppm):
                         Standard Origin              Atomic Origin
 NLMO      Total    Paramagnetic  Diamagnetic   Paramagnetic  Diamagnetic
   12      -0.1918        0.3197      -0.5115        -1.3118       1.1200
   14      -0.1281       -0.5388       0.4108        -1.0217       0.8936
   16       1.7313        0.0082       1.7231         0.6829       1.0484
   23       0.8488        2.0361      -1.1873        -0.2327       1.0815
   24       0.9387        1.6498      -0.7110        -0.0912       1.0299
   25      26.4949       -0.1610      26.6559         0.4622      26.0327
   28       0.1977       -0.6507       0.8484        -0.8311       1.0289
 Sum       29.8916        2.6633      27.2283        -2.3434      32.2350

 Contributions to Isotropic shielding for atom   26 (    32.7143 ppm):
                         Standard Origin              Atomic Origin
 NLMO      Total    Paramagnetic  Diamagnetic   Paramagnetic  Diamagnetic
   22      -0.2732       -0.3815       0.1082        -1.1336       0.8603
   23       1.5461       -0.9289       2.4749         0.6539       0.8922
   24      -0.1550        0.2719      -0.4268        -1.0512       0.8963
   26      26.3799        0.2706      26.1093         0.4121      25.9678
   27       2.0264        0.6866       1.3398         0.1986       1.8278
   28       1.8998        2.1497      -0.2499         0.0367       1.8630
 Sum       31.4240        2.0685      29.3555        -0.8836      32.3075

 Contributions to Isotropic shielding for atom   27 (    32.2930 ppm):
                         Standard Origin              Atomic Origin
 NLMO      Total    Paramagnetic  Diamagnetic   Paramagnetic  Diamagnetic
   16      -0.0519        0.0333      -0.0852        -1.0289       0.9770
   23       1.5999       -0.8327       2.4326         0.6028       0.9971
   26       2.0319        0.6926       1.3393         0.1978       1.8342
   27      26.2564        0.2920      25.9644         0.4237      25.8327
   28       1.8668        2.1866      -0.3198         0.0343       1.8325
 Sum       31.7031        2.3718      29.3313         0.2296      31.4735

 Contributions to Isotropic shielding for atom   28 (    32.4516 ppm):
                         Standard Origin              Atomic Origin
 NLMO      Total    Paramagnetic  Diamagnetic   Paramagnetic  Diamagnetic
   23       1.1917        0.4654       0.7263         0.1626       1.0291
   24      -0.1570        0.7169      -0.8740        -1.0597       0.9027
   25       0.1280        0.5840      -0.4560        -0.8724       1.0004
   26       1.9273        1.7727       0.1546         0.0567       1.8706
   27       1.9482        1.8489       0.0993         0.0860       1.8622
   28      26.4397        0.0070      26.4327         0.4676      25.9721
 Sum       31.4779        5.3950      26.0829        -1.1592      32.6371

 Contributions to Isotropic shielding for atom   29 (    33.2239 ppm):
                         Standard Origin              Atomic Origin
 NLMO      Total    Paramagnetic  Diamagnetic   Paramagnetic  Diamagnetic
    8      -0.1387        0.0656      -0.2044        -1.0778       0.9390
   10      -0.1234        0.1732      -0.2966        -1.1696       1.0462
   24       1.5090       -0.6202       2.1292         0.5700       0.9389
   29      26.4976        0.2652      26.2324         0.3750      26.1226
   30       2.1354        0.4147       1.7207         0.3131       1.8223
   31       1.9947        2.1098      -0.1152         0.1400       1.8547
 Sum       31.8745        2.4084      29.4661        -0.8493      32.7238

 Contributions to Isotropic shielding for atom   30 (    32.6190 ppm):
                         Standard Origin              Atomic Origin
 NLMO      Total    Paramagnetic  Diamagnetic   Paramagnetic  Diamagnetic
   24       1.5111       -0.7648       2.2759         0.4821       1.0290
   29       2.0931        0.4140       1.6791         0.2794       1.8137
   30      26.2696        0.2897      25.9799         0.3746      25.8951
   31       1.9427        1.9793      -0.0365         0.0834       1.8594
 Sum       31.8165        1.9181      29.8984         1.2194      30.5971

 Contributions to Isotropic shielding for atom   31 (    32.5712 ppm):
                         Standard Origin              Atomic Origin
 NLMO      Total    Paramagnetic  Diamagnetic   Paramagnetic  Diamagnetic
   23      -0.1392        0.6140      -0.7532        -1.0844       0.9452
   24       1.1641        0.8609       0.3032         0.1234       1.0407
   29       1.9731        1.6723       0.3008         0.1259       1.8472
   30       2.0423        1.6092       0.4331         0.1780       1.8643
   31      26.2569       -0.0372      26.2942         0.4100      25.8470
 Sum       31.2973        4.7192      26.5781        -0.2471      31.5444
 
 1\1\GINC-COMPUTE-6-4\SP\RHF\STO-3G\C10H20O1\YTSAI.IQUIR\03-Aug-2021\0\
 \# rhf/STO-3G nmr pop=nbo\\comment\\0,1\C,0,0.878506377,0.401327651,-3
 .618657182\C,0,0.168839085,0.293670829,-2.270441019\C,0,-0.0186156,-1.
 057422556,-0.127713791\C,0,-0.265882657,1.451470986,-0.063503182\C,0,0
 .218211622,0.212245524,0.719881636\C,0,0.393451812,1.558603429,-1.4372
 12473\C,0,0.644697645,-0.942701204,-1.504160045\O,0,0.531109085,-2.208
 556744,0.501480747\C,0,-0.407082937,0.205243444,2.148372267\C,0,0.4157
 92145,-0.608469528,3.153272494\C,0,-1.870286231,-0.24141279,2.18807205
 4\H,0,0.516957425,1.269809544,-4.179221536\H,0,1.961404382,0.506658756
 ,-3.492369814\H,0,0.693755303,-0.490482183,-4.226733477\H,0,-0.9073195
 69,0.190210353,-2.462998544\H,0,-1.091396882,-1.229497564,-0.277017911
 \H,0,-0.042239325,2.362871312,0.503981065\H,0,-1.354074414,1.417101589
 ,-0.19371913\H,0,1.304142551,0.321702264,0.856504093\H,0,1.468576036,1
 .738122621,-1.308597748\H,0,-0.012203461,2.430247855,-1.964695717\H,0,
 1.73648922,-0.92047126,-1.383190381\H,0,0.433905763,-1.850872699,-2.08
 3721839\H,0,-0.142812994,-2.560252836,1.106761263\H,0,-0.379308625,1.2
 40349493,2.516719304\H,0,0.34444489,-1.684777959,2.981413692\H,0,1.472
 133471,-0.322725934,3.118930492\H,0,0.058951239,-0.421545973,4.1725259
 61\H,0,-1.98035636,-1.298870386,1.928676752\H,0,-2.487753145,0.3462523
 81,1.502672607\H,0,-2.282035852,-0.107828416,3.194689362\\Version=EM64
 L-G09RevC.01\State=1-A\HF=-459.6201815\RMSD=9.071e-09\Dipole=-0.48989,
 0.2661241,0.0810906\Quadrupole=0.0755528,-0.7741702,0.6986174,2.407801
 2,-0.5198539,-0.3372801\PG=C01 [X(C10H20O1)]\\@


 IF YOU GET CONFUSED, LOGIC OUT YOUR DILEMMA

           --  PICKER X-RAY CORP.    DIGITAL PRINTER MANUAL CA. 1964
 Job cpu time:  0 days  0 hours  0 minutes 48.5 seconds.
 File lengths (MBytes):  RWF=      5 Int=      0 D2E=      0 Chk=      1 Scr=      1
 Normal termination of Gaussian 09 at Tue Aug  3 16:33:05 2021.
