 Entering Gaussian System, Link 0=g09
 Input=/home/ytsai.iquir/menthol/01_menthol_M0013_MMFF_NMR_rhf_STO-3G_nbo.gjc
 Output=/home/ytsai.iquir/menthol/01_menthol_M0013_MMFF_NMR_rhf_STO-3G_nbo.log
 Initial command:
 /share/apps/Gaussian09/EM64T.SSE4.2-enabled/g09/l1.exe /tmp/Gau-30621.inp -scrdir=/tmp/
 Entering Link 1 = /share/apps/Gaussian09/EM64T.SSE4.2-enabled/g09/l1.exe PID=     30623.
  
 Copyright (c) 1988,1990,1992,1993,1995,1998,2003,2009,2011,
            Gaussian, Inc.  All Rights Reserved.
  
 This is part of the Gaussian(R) 09 program.  It is based on
 the Gaussian(R) 03 system (copyright 2003, Gaussian, Inc.),
 the Gaussian(R) 98 system (copyright 1998, Gaussian, Inc.),
 the Gaussian(R) 94 system (copyright 1995, Gaussian, Inc.),
 the Gaussian 92(TM) system (copyright 1992, Gaussian, Inc.),
 the Gaussian 90(TM) system (copyright 1990, Gaussian, Inc.),
 the Gaussian 88(TM) system (copyright 1988, Gaussian, Inc.),
 the Gaussian 86(TM) system (copyright 1986, Carnegie Mellon
 University), and the Gaussian 82(TM) system (copyright 1983,
 Carnegie Mellon University). Gaussian is a federally registered
 trademark of Gaussian, Inc.
  
 This software contains proprietary and confidential information,
 including trade secrets, belonging to Gaussian, Inc.
  
 This software is provided under written license and may be
 used, copied, transmitted, or stored only in accord with that
 written license.
  
 The following legend is applicable only to US Government
 contracts under FAR:
  
                    RESTRICTED RIGHTS LEGEND
  
 Use, reproduction and disclosure by the US Government is
 subject to restrictions as set forth in subparagraphs (a)
 and (c) of the Commercial Computer Software - Restricted
 Rights clause in FAR 52.227-19.
  
 Gaussian, Inc.
 340 Quinnipiac St., Bldg. 40, Wallingford CT 06492
  
  
 ---------------------------------------------------------------
 Warning -- This program may not be used in any manner that
 competes with the business of Gaussian, Inc. or will provide
 assistance to any competitor of Gaussian, Inc.  The licensee
 of this program is prohibited from giving any competitor of
 Gaussian, Inc. access to this program.  By using this program,
 the user acknowledges that Gaussian, Inc. is engaged in the
 business of creating and licensing software in the field of
 computational chemistry and represents and warrants to the
 licensee that it is not a competitor of Gaussian, Inc. and that
 it will not use this program in any manner prohibited above.
 ---------------------------------------------------------------
  

 Cite this work as:
 Gaussian 09, Revision C.01,
 M. J. Frisch, G. W. Trucks, H. B. Schlegel, G. E. Scuseria, 
 M. A. Robb, J. R. Cheeseman, G. Scalmani, V. Barone, B. Mennucci, 
 G. A. Petersson, H. Nakatsuji, M. Caricato, X. Li, H. P. Hratchian, 
 A. F. Izmaylov, J. Bloino, G. Zheng, J. L. Sonnenberg, M. Hada, 
 M. Ehara, K. Toyota, R. Fukuda, J. Hasegawa, M. Ishida, T. Nakajima, 
 Y. Honda, O. Kitao, H. Nakai, T. Vreven, J. A. Montgomery, Jr., 
 J. E. Peralta, F. Ogliaro, M. Bearpark, J. J. Heyd, E. Brothers, 
 K. N. Kudin, V. N. Staroverov, T. Keith, R. Kobayashi, J. Normand, 
 K. Raghavachari, A. Rendell, J. C. Burant, S. S. Iyengar, J. Tomasi, 
 M. Cossi, N. Rega, J. M. Millam, M. Klene, J. E. Knox, J. B. Cross, 
 V. Bakken, C. Adamo, J. Jaramillo, R. Gomperts, R. E. Stratmann, 
 O. Yazyev, A. J. Austin, R. Cammi, C. Pomelli, J. W. Ochterski, 
 R. L. Martin, K. Morokuma, V. G. Zakrzewski, G. A. Voth, 
 P. Salvador, J. J. Dannenberg, S. Dapprich, A. D. Daniels, 
 O. Farkas, J. B. Foresman, J. V. Ortiz, J. Cioslowski, 
 and D. J. Fox, Gaussian, Inc., Wallingford CT, 2010.
 
 ******************************************
 Gaussian 09:  EM64L-G09RevC.01 23-Sep-2011
                 3-Aug-2021 
 ******************************************
 %nprocshared=4
 Will use up to    4 processors via shared memory.
 ------------------------
 # rhf/STO-3G nmr pop=nbo
 ------------------------
 1/38=1/1;
 2/12=2,17=6,18=5,40=1/2;
 3/6=3,11=1,16=1,25=1,30=1,116=1/1,2,8,3;
 4//1;
 5/5=2,38=5/2;
 8/6=1,10=90,11=11/1;
 10/13=100,45=16/2;
 6/7=2,8=2,9=2,10=2,28=1,64=1/1,7;
 99/9=1/99;
 -------
 comment
 -------
 Charge =  0 Multiplicity = 1
 Symbolic Z-Matrix:
 6                     0.80988   0.39097  -3.6054 
 6                     0.1157    0.2815   -2.24926 
 6                    -0.03951  -1.06873  -0.10226 
 6                    -0.30738   1.4415   -0.04216 
 6                     0.18242   0.20608   0.74186 
 6                     0.34729   1.54703  -1.41822 
 6                     0.60345  -0.95385  -1.48884 
 8                     0.50883  -2.21469   0.53914 
 6                    -0.44676   0.18383   2.16881 
 6                     0.32734  -0.7088    3.14492 
 6                    -1.92966  -0.19621   2.19308 
 1                     0.62107  -0.50158  -4.21115 
 1                     0.43936   1.25816  -4.16209 
 1                     1.89379   0.49974  -3.49131 
 1                    -0.96231   0.17548  -2.42964 
 1                    -1.11177  -1.25223  -0.2327 
 1                    -0.08602   2.35407   0.52425 
 1                    -1.3952    1.40412  -0.1724 
 1                     1.26671   0.3249    0.88427 
 1                     1.42327   1.72469  -1.29452 
 1                    -0.05946   2.41889  -1.9445 
 1                     1.69679  -0.92813  -1.38436 
 1                     0.38666  -1.86335  -2.06387 
 1                     1.45889  -2.05618   0.67299 
 1                    -0.36901   1.20422   2.56937 
 1                     0.17616  -1.77268   2.94298 
 1                     1.40065  -0.49653   3.10749 
 1                    -0.0084   -0.52579   4.17198 
 1                    -2.08703  -1.23519   1.88666 
 1                    -2.52248   0.44874   1.53859 
 1                    -2.33326  -0.08997   3.2063 
 
                          Input orientation:                          
 ---------------------------------------------------------------------
 Center     Atomic      Atomic             Coordinates (Angstroms)
 Number     Number       Type             X           Y           Z
 ---------------------------------------------------------------------
      1          6           0        0.809875    0.390966   -3.605405
      2          6           0        0.115701    0.281497   -2.249260
      3          6           0       -0.039513   -1.068730   -0.102264
      4          6           0       -0.307375    1.441504   -0.042156
      5          6           0        0.182415    0.206080    0.741859
      6          6           0        0.347293    1.547026   -1.418217
      7          6           0        0.603455   -0.953853   -1.488836
      8          8           0        0.508832   -2.214691    0.539138
      9          6           0       -0.446762    0.183830    2.168814
     10          6           0        0.327340   -0.708799    3.144919
     11          6           0       -1.929656   -0.196215    2.193075
     12          1           0        0.621066   -0.501578   -4.211153
     13          1           0        0.439360    1.258164   -4.162088
     14          1           0        1.893786    0.499743   -3.491315
     15          1           0       -0.962307    0.175484   -2.429639
     16          1           0       -1.111766   -1.252233   -0.232700
     17          1           0       -0.086023    2.354072    0.524253
     18          1           0       -1.395203    1.404115   -0.172404
     19          1           0        1.266705    0.324901    0.884269
     20          1           0        1.423266    1.724688   -1.294519
     21          1           0       -0.059459    2.418890   -1.944501
     22          1           0        1.696793   -0.928130   -1.384358
     23          1           0        0.386663   -1.863352   -2.063868
     24          1           0        1.458895   -2.056179    0.672989
     25          1           0       -0.369012    1.204219    2.569373
     26          1           0        0.176164   -1.772676    2.942983
     27          1           0        1.400647   -0.496533    3.107486
     28          1           0       -0.008403   -0.525791    4.171980
     29          1           0       -2.087033   -1.235190    1.886661
     30          1           0       -2.522479    0.448740    1.538588
     31          1           0       -2.333263   -0.089970    3.206297
 ---------------------------------------------------------------------
                    Distance matrix (angstroms):
                    1          2          3          4          5
     1  C    0.000000
     2  C    1.527413   0.000000
     3  C    3.888980   2.541023   0.000000
     4  C    3.879255   2.529016   2.525200   0.000000
     5  C    4.396202   2.992814   1.544971   1.543000   0.000000
     6  C    2.516793   1.531611   2.953562   1.527504   2.547794
     7  C    2.516150   1.530438   1.532706   2.942827   2.549259
     8  O    4.904825   3.763067   1.423133   3.791024   2.451077
     9  C    5.913006   4.454804   2.625367   2.547461   1.559666
    10  C    6.856325   5.488410   3.287602   3.896679   2.575403
    11  C    6.439890   4.913862   3.098791   3.210946   2.593976
    12  H    1.095087   2.172010   4.200119   4.692346   5.022502
    13  H    1.095085   2.171990   4.703820   4.191070   5.022111
    14  H    1.095314   2.179889   4.205166   4.198657   4.575455
    15  H    2.137636   1.098124   2.795763   2.780615   3.371903
    16  H    4.215204   2.815230   1.095634   2.817724   2.179758
    17  H    4.659452   3.468232   3.479979   1.096629   2.175610
    18  H    4.204086   2.802933   2.820953   1.096235   2.181753
    19  H    4.513339   3.338518   2.149804   2.140746   1.100038
    20  H    2.737747   2.168884   3.371109   2.154930   2.827140
    21  H    2.761670   2.166104   3.944329   2.153059   3.488777
    22  H    2.731243   2.170509   2.162936   3.381326   2.846150
    23  H    2.763583   2.169832   2.158921   3.935872   3.492330
    24  H    4.971358   3.975983   1.954815   3.983081   2.598453
    25  H    6.338693   4.930070   3.523139   2.623011   2.154103
    26  H    6.925627   5.584145   3.132983   4.413141   2.959807
    27  H    6.797027   5.563376   3.564263   4.073521   2.752080
    28  H    7.873864   6.472978   4.308702   4.660319   3.512517
    29  H    6.418664   4.925264   2.859348   3.748628   2.922024
    30  H    6.129321   4.619064   3.340693   2.896725   2.830214
    31  H    7.517306   5.991537   4.143167   4.123357   3.534082
                    6          7          8          9         10
     6  C    0.000000
     7  C    2.514956   0.000000
     8  O    4.243566   2.389842   0.000000
     9  C    3.918624   3.971861   3.053180   0.000000
    10  C    5.090319   4.648438   3.015086   1.532580   0.000000
    11  C    4.611379   4.532895   3.571552   1.531012   2.502555
    12  H    3.474511   2.759687   5.051002   6.504923   7.364850
    13  H    2.760570   3.473647   5.845261   6.482262   7.567948
    14  H    2.790372   2.790666   5.052801   6.133108   6.924877
    15  H    2.149222   2.147585   4.085441   4.627270   5.789719
    16  H    3.371966   2.146833   2.036762   2.876070   3.711422
    17  H    2.147621   3.933227   4.607349   2.746754   4.052151
    18  H    2.146804   3.359709   4.150591   2.805341   4.293738
    19  H    2.764118   2.776102   2.672642   2.146142   2.657344
    20  H    1.097535   2.807923   4.440405   4.226809   5.179915
    21  H    1.096617   3.467345   5.287863   4.697324   5.986171
    22  H    2.819343   1.098620   2.601216   4.296081   4.736861
    23  H    3.471181   1.097656   2.629449   4.775055   5.335538
    24  H    4.311831   2.573012   0.972451   3.299494   3.034187
    25  H    4.065892   4.698088   4.072028   1.098947   2.115608
    26  H    5.483591   4.527037   2.466681   2.194377   1.093374
    27  H    5.076187   4.687306   3.216180   2.181037   1.094736
    28  H    5.972721   5.709855   4.039487   2.169884   1.095934
    29  H    4.958719   4.325721   3.084438   2.187172   2.772994
    30  H    4.264331   4.572092   4.157116   2.185397   3.470109
    31  H    5.590283   5.604898   4.439109   2.170305   2.732311
                   11         12         13         14         15
    11  C    0.000000
    12  H    6.900259   0.000000
    13  H    6.936537   1.769779   0.000000
    14  H    6.885881   1.772182   1.772144   0.000000
    15  H    4.737448   2.477756   2.477548   3.064240   0.000000
    16  H    2.769207   4.403894   4.914079   4.766690   2.624358
    17  H    3.562009   5.574835   4.841367   4.845922   3.773539
    18  H    2.905544   4.899848   4.393689   4.759255   2.606155
    19  H    3.493030   5.202235   5.198192   4.423746   3.996599
    20  H    5.205311   3.755868   3.067355   2.558865   3.062595
    21  H    5.239843   3.758984   2.552214   3.144984   2.466447
    22  H    5.146345   3.054490   3.751907   2.552821   3.062906
    23  H    5.125061   2.553470   3.761538   3.145353   2.471915
    24  H    4.153602   5.193610   5.949982   4.905435   4.524250
    25  H    2.130358   7.061553   6.780040   6.507571   5.138134
    26  H    2.735338   7.279786   7.728990   7.036640   5.827222
    27  H    3.466592   7.360045   7.539877   6.691781   6.057633
    28  H    2.777750   8.406768   8.534616   7.962169   6.706944
    29  H    1.094590   6.712327   7.013333   6.912275   4.678190
    30  H    1.093507   6.621518   6.474979   6.693722   4.272661
    31  H    1.095812   7.994751   7.987365   7.941896   5.806355
                   16         17         18         19         20
    16  H    0.000000
    17  H    3.824991   0.000000
    18  H    2.672107   1.761165   0.000000
    19  H    3.064652   2.465161   3.060558   0.000000
    20  H    4.051654   2.445814   3.050521   2.594423   0.000000
    21  H    4.185064   2.469748   2.440145   3.761043   1.761496
    22  H    3.052763   4.194529   4.058157   2.627114   2.668395
    23  H    2.443754   4.970761   4.174809   3.775505   3.813198
    24  H    2.841637   4.675383   4.564450   2.398149   4.262313
    25  H    3.799665   2.363209   2.934343   2.507658   4.291015
    26  H    3.466206   4.790516   4.718774   3.134870   5.634113
    27  H    4.247370   4.124224   4.710300   2.373898   4.930718
    28  H    4.598514   4.648176   4.951911   3.627482   6.082511
    29  H    2.333051   4.329318   3.418232   3.832262   5.585963
    30  H    2.832116   3.255070   2.260749   3.847257   5.022294
    31  H    3.830093   4.268112   3.811544   4.303917   6.136924
                   21         22         23         24         25
    21  H    0.000000
    22  H    3.821090   0.000000
    23  H    4.307073   1.747231   0.000000
    24  H    5.402120   2.358339   2.945717   0.000000
    25  H    4.684689   4.944335   5.607848   4.191386   0.000000
    26  H    6.443000   4.663844   5.012094   2.622717   3.049378
    27  H    6.012835   4.522239   5.444196   2.891828   2.512731
    28  H    6.788600   5.826016   6.389910   4.091209   2.385649
    29  H    5.669318   5.011107   4.703237   3.836747   3.060786
    30  H    4.698922   5.314286   5.175574   4.782804   2.504134
    31  H    6.164031   6.165872   6.190115   4.966296   2.436981
                   26         27         28         29         30
    26  H    0.000000
    27  H    1.776221   0.000000
    28  H    1.760461   1.766190   0.000000
    29  H    2.554754   3.768281   3.169642   0.000000
    30  H    3.766920   4.329654   3.768957   1.773806   0.000000
    31  H    3.032831   3.757279   2.554889   1.764539   1.762743
                   31
    31  H    0.000000
 Stoichiometry    C10H20O
 Framework group  C1[X(C10H20O)]
 Deg. of freedom    87
 Full point group                 C1      NOp   1
 Largest Abelian subgroup         C1      NOp   1
 Largest concise Abelian subgroup C1      NOp   1
                         Standard orientation:                         
 ---------------------------------------------------------------------
 Center     Atomic      Atomic             Coordinates (Angstroms)
 Number     Number       Type             X           Y           Z
 ---------------------------------------------------------------------
      1          6           0        3.727360    0.143753    0.010847
      2          6           0        2.261319   -0.124801    0.344901
      3          6           0       -0.072617    0.878939    0.390111
      4          6           0        0.247123   -1.558316   -0.187986
      5          6           0       -0.623126   -0.307712   -0.431921
      6          6           0        1.723769   -1.298190   -0.479738
      7          6           0        1.413428    1.127197    0.108640
      8          8           0       -0.778196    2.080109    0.099155
      9          6           0       -2.129432   -0.641078   -0.202862
     10          6           0       -3.068994    0.372957   -0.864494
     11          6           0       -2.515629   -0.812919    1.268641
     12          1           0        4.120308    0.964137    0.620581
     13          1           0        4.338991   -0.742942    0.208056
     14          1           0        3.853458    0.414524   -1.042953
     15          1           0        2.200815   -0.389932    1.408819
     16          1           0       -0.193454    0.683367    1.461354
     17          1           0       -0.097913   -2.382217   -0.824171
     18          1           0        0.148093   -1.895442    0.850413
     19          1           0       -0.522539   -0.048777   -1.496308
     20          1           0        1.850847   -1.095243   -1.550834
     21          1           0        2.299614   -2.204831   -0.258437
     22          1           0        1.536412    1.479513   -0.924662
     23          1           0        1.768222    1.950649    0.741804
     24          1           0       -0.689459    2.255502   -0.853224
     25          1           0       -2.324785   -1.600714   -0.701482
     26          1           0       -3.087413    1.328792   -0.333922
     27          1           0       -2.781096    0.557649   -1.904422
     28          1           0       -4.095469   -0.010946   -0.870715
     29          1           0       -2.430245    0.127207    1.822717
     30          1           0       -1.892463   -1.562118    1.764749
     31          1           0       -3.555563   -1.148027    1.352572
 ---------------------------------------------------------------------
 Rotational constants (GHZ):      1.9319506      0.6789051      0.5769577
 Standard basis: STO-3G (5D, 7F)
 There are    75 symmetry adapted basis functions of A   symmetry.
 Integral buffers will be    131072 words long.
 Raffenetti 1 integral format.
 Two-electron integral symmetry is turned on.
    75 basis functions,   225 primitive gaussians,    75 cartesian basis functions
    44 alpha electrons       44 beta electrons
       nuclear repulsion energy       691.5061712553 Hartrees.
 NAtoms=   31 NActive=   31 NUniq=   31 SFac= 1.00D+00 NAtFMM=   60 NAOKFM=F Big=F
 One-electron integrals computed using PRISM.
 NBasis=    75 RedAO= T  NBF=    75
 NBsUse=    75 1.00D-06 NBFU=    75
 Harris functional with IExCor=  205 diagonalized for initial guess.
 ExpMin= 1.69D-01 ExpMax= 1.31D+02 ExpMxC= 1.31D+02 IAcc=1 IRadAn=         1 AccDes= 0.00D+00
 HarFok:  IExCor=  205 AccDes= 0.00D+00 IRadAn=         1 IDoV= 1
 ScaDFX=  1.000000  1.000000  1.000000  1.000000
 FoFCou: FMM=F IPFlag=           0 FMFlag=      100000 FMFlg1=           0
         NFxFlg=           0 DoJE=T BraDBF=F KetDBF=T FulRan=T
         Omega=  0.000000  0.000000  1.000000  0.000000  0.000000 ICntrl=     500 IOpCl=  0
         NMat0=    1 NMatS0=    1 NMatT0=    0 NMatD0=    1 NMtDS0=    0 NMtDT0=    0
         I1Cent=           4 NGrid=           0.
 Petite list used in FoFCou.
 Initial guess orbital symmetries:
       Occupied  (A) (A) (A) (A) (A) (A) (A) (A) (A) (A) (A) (A)
                 (A) (A) (A) (A) (A) (A) (A) (A) (A) (A) (A) (A)
                 (A) (A) (A) (A) (A) (A) (A) (A) (A) (A) (A) (A)
                 (A) (A) (A) (A) (A) (A) (A) (A)
       Virtual   (A) (A) (A) (A) (A) (A) (A) (A) (A) (A) (A) (A)
                 (A) (A) (A) (A) (A) (A) (A) (A) (A) (A) (A) (A)
                 (A) (A) (A) (A) (A) (A) (A)
 The electronic state of the initial guess is 1-A.
 Requested convergence on RMS density matrix=1.00D-08 within 128 cycles.
 Requested convergence on MAX density matrix=1.00D-06.
 Requested convergence on             energy=1.00D-06.
 No special actions if energy rises.
 Keep R1 ints in memory in canonical form, NReq=4898789.
 SCF Done:  E(RHF) =  -459.622751953     A.U. after   10 cycles
             Convg  =    0.7906D-08             -V/T =  2.0090
 Range of M.O.s used for correlation:     1    75
 NBasis=    75 NAE=    44 NBE=    44 NFC=     0 NFV=     0
 NROrb=     75 NOA=    44 NOB=    44 NVA=    31 NVB=    31
          Differentiating once with respect to magnetic field using GIAOs.
          Electric field/nuclear overlap derivatives assumed to be zero.
          Keep R3 ints in memory in canonical form, NReq=4863575.
 FoFCou: FMM=F IPFlag=           0 FMFlag=           0 FMFlg1=           0
         NFxFlg=           0 DoJE=F BraDBF=F KetDBF=T FulRan=T
         Omega=  0.000000  0.000000  1.000000  0.000000  0.000000 ICntrl=    6100 IOpCl=  0
         NMat0=    1 NMatS0=    1 NMatT0=    0 NMatD0=    1 NMtDS0=    0 NMtDT0=    0
         I1Cent=           7 NGrid=          31.
 Symmetry not used in FoFCou.
          There are     3 degrees of freedom in the 1st order CPHF.  IDoFFX=0.
      3 vectors produced by pass  0 Test12= 4.55D-14 3.33D-08 XBig12= 7.50D+00 4.06D-01.
 AX will form     3 AO Fock derivatives at one time.
      3 vectors produced by pass  1 Test12= 4.55D-14 3.33D-08 XBig12= 1.15D-02 1.73D-02.
      3 vectors produced by pass  2 Test12= 4.55D-14 3.33D-08 XBig12= 6.75D-05 2.64D-03.
      3 vectors produced by pass  3 Test12= 4.55D-14 3.33D-08 XBig12= 1.62D-06 2.63D-04.
      3 vectors produced by pass  4 Test12= 4.55D-14 3.33D-08 XBig12= 1.81D-08 3.81D-05.
      3 vectors produced by pass  5 Test12= 4.55D-14 3.33D-08 XBig12= 2.94D-10 2.91D-06.
      3 vectors produced by pass  6 Test12= 4.55D-14 3.33D-08 XBig12= 3.56D-12 3.53D-07.
 Inverted reduced A of dimension    21 with in-core refinement.
 Calculating GIAO nuclear magnetic shielding tensors.
 SCF GIAO Magnetic shielding tensor (ppm):
      1  C    Isotropic =   221.1709   Anisotropy =    28.3321
   XX=   239.1458   YX=     3.5662   ZX=    -1.2580
   XY=     4.4607   YY=   212.9523   ZY=     0.0060
   XZ=    -4.7307   YZ=    -0.3908   ZZ=   211.4148
   Eigenvalues:   211.0538   212.4000   240.0590
      2  C    Isotropic =   215.3422   Anisotropy =     8.0555
   XX=   220.0581   YX=     0.4936   ZX=     1.5477
   XY=     2.0861   YY=   216.6494   ZY=     1.9780
   XZ=     0.2816   YZ=     2.2622   ZZ=   209.3193
   Eigenvalues:   208.7230   216.5911   220.7126
      3  C    Isotropic =   189.0000   Anisotropy =    40.7996
   XX=   190.6827   YX=   -14.7852   ZX=     6.9180
   XY=   -13.8042   YY=   205.6935   ZY=    -5.5674
   XZ=     8.3094   YZ=    -6.7050   ZZ=   170.6240
   Eigenvalues:   168.0054   182.7949   216.1998
      4  C    Isotropic =   215.8816   Anisotropy =    18.2858
   XX=   226.5071   YX=    -2.2804   ZX=    -0.6044
   XY=    -5.0455   YY=   219.3210   ZY=    -0.2059
   XZ=     2.7624   YZ=     1.0000   ZZ=   201.8165
   Eigenvalues:   201.7513   217.8213   228.0721
      5  C    Isotropic =   207.5139   Anisotropy =    12.0568
   XX=   214.0047   YX=     3.2510   ZX=    -2.8894
   XY=     2.0764   YY=   204.7222   ZY=    -0.2716
   XZ=    -3.0828   YZ=    -1.6589   ZZ=   203.8148
   Eigenvalues:   202.9544   204.0356   215.5518
      6  C    Isotropic =   215.6646   Anisotropy =    16.6112
   XX=   221.1289   YX=     5.4715   ZX=    -0.6714
   XY=     7.8944   YY=   216.2562   ZY=     5.5874
   XZ=     3.1525   YZ=     4.4949   ZZ=   209.6087
   Eigenvalues:   206.5113   213.7438   226.7387
      7  C    Isotropic =   213.3187   Anisotropy =    24.3600
   XX=   227.3317   YX=    -7.1413   ZX=    -1.3428
   XY=    -6.2137   YY=   209.5360   ZY=    -3.4272
   XZ=    -0.2971   YZ=    -1.3676   ZZ=   203.0884
   Eigenvalues:   201.9013   208.4961   229.5587
      8  O    Isotropic =   350.2658   Anisotropy =    86.6566
   XX=   325.6199   YX=     6.1402   ZX=   -22.3862
   XY=    -0.8490   YY=   320.8660   ZY=     4.7245
   XZ=    -7.3368   YZ=   -22.8553   ZZ=   404.3114
   Eigenvalues:   319.5723   323.1881   408.0368
      9  C    Isotropic =   212.0971   Anisotropy =    18.7486
   XX=   224.3368   YX=     1.5199   ZX=     0.7614
   XY=     2.0472   YY=   207.0660   ZY=    -2.1693
   XZ=    -2.9341   YZ=    -0.7537   ZZ=   204.8884
   Eigenvalues:   204.1532   207.5419   224.5962
     10  C    Isotropic =   220.4644   Anisotropy =    27.2083
   XX=   224.8115   YX=    -9.0891   ZX=     8.3273
   XY=   -10.5482   YY=   217.5539   ZY=   -11.7293
   XZ=     5.2013   YZ=    -8.8764   ZZ=   219.0277
   Eigenvalues:   207.3620   215.4279   238.6032
     11  C    Isotropic =   224.1525   Anisotropy =    20.5581
   XX=   219.8027   YX=     2.0809   ZX=    -6.0876
   XY=     0.5066   YY=   217.1808   ZY=    -3.7643
   XZ=    -3.4316   YZ=    -5.1962   ZZ=   235.4740
   Eigenvalues:   216.1285   218.4710   237.8579
     12  H    Isotropic =    32.4371   Anisotropy =    13.7812
   XX=    35.3210   YX=     5.1491   ZX=     3.5987
   XY=     4.8965   YY=    32.8016   ZY=     4.5203
   XZ=     3.2455   YZ=     4.3081   ZZ=    29.1886
   Eigenvalues:    26.2252    29.4614    41.6245
     13  H    Isotropic =    32.4552   Anisotropy =    13.8944
   XX=    37.9534   YX=    -5.6242   ZX=     1.6560
   XY=    -5.3537   YY=    32.8941   ZY=    -1.2935
   XZ=     1.4422   YZ=    -1.1055   ZZ=    26.5181
   Eigenvalues:    26.2580    29.3895    41.7181
     14  H    Isotropic =    32.7196   Anisotropy =    11.5162
   XX=    33.6325   YX=     1.7647   ZX=    -4.2476
   XY=     1.7366   YY=    28.1473   ZY=    -2.7915
   XZ=    -4.3583   YZ=    -2.7555   ZZ=    36.3792
   Eigenvalues:    27.2589    30.5030    40.3971
     15  H    Isotropic =    32.8126   Anisotropy =    11.0019
   XX=    31.5017   YX=     0.0603   ZX=     1.7287
   XY=    -0.1387   YY=    27.7744   ZY=    -2.9332
   XZ=     1.5818   YZ=    -2.8045   ZZ=    39.1616
   Eigenvalues:    27.0644    31.2261    40.1472
     16  H    Isotropic =    31.6358   Anisotropy =     7.3705
   XX=    31.1828   YX=     1.1705   ZX=    -1.1546
   XY=     1.2138   YY=    27.6086   ZY=    -0.2480
   XZ=    -1.8952   YZ=     0.8563   ZZ=    36.1161
   Eigenvalues:    27.1843    31.1738    36.5495
     17  H    Isotropic =    32.5025   Anisotropy =    13.2094
   XX=    31.9492   YX=     2.0476   ZX=     1.3693
   XY=     2.2956   YY=    37.4606   ZY=     6.1868
   XZ=     1.3237   YZ=     6.3845   ZZ=    28.0977
   Eigenvalues:    24.9338    31.2649    41.3088
     18  H    Isotropic =    32.6561   Anisotropy =    10.0429
   XX=    32.3009   YX=    -0.4577   ZX=    -2.0177
   XY=    -0.0149   YY=    31.5691   ZY=    -6.0455
   XZ=    -1.9807   YZ=    -6.1604   ZZ=    34.0982
   Eigenvalues:    26.2470    32.3698    39.3514
     19  H    Isotropic =    33.2592   Anisotropy =     8.2988
   XX=    33.3250   YX=    -0.4224   ZX=    -0.2532
   XY=    -0.1748   YY=    28.1257   ZY=    -2.4441
   XZ=     0.4961   YZ=    -1.9798   ZZ=    38.3268
   Eigenvalues:    27.6541    33.3318    38.7917
     20  H    Isotropic =    32.8897   Anisotropy =    10.9059
   XX=    31.6622   YX=     0.4520   ZX=    -3.0012
   XY=     0.3722   YY=    28.1191   ZY=     1.6141
   XZ=    -2.9648   YZ=     1.9676   ZZ=    38.8878
   Eigenvalues:    27.5960    30.9128    40.1603
     21  H    Isotropic =    32.4418   Anisotropy =    14.1145
   XX=    33.8451   YX=    -5.3118   ZX=     0.6162
   XY=    -5.4196   YY=    38.2346   ZY=    -0.0113
   XZ=     0.7474   YZ=    -0.2526   ZZ=    25.2456
   Eigenvalues:    25.1833    30.2906    41.8515
     22  H    Isotropic =    33.1924   Anisotropy =     9.4984
   XX=    32.7810   YX=     0.7232   ZX=    -1.5395
   XY=     0.4339   YY=    32.3254   ZY=    -5.4473
   XZ=    -2.0871   YZ=    -5.6692   ZZ=    34.4707
   Eigenvalues:    27.6344    32.4181    39.5247
     23  H    Isotropic =    31.9812   Anisotropy =    13.0755
   XX=    32.0750   YX=     2.9997   ZX=     2.7024
   XY=     2.7159   YY=    36.0043   ZY=     5.8103
   XZ=     2.3314   YZ=     5.9875   ZZ=    27.8643
   Eigenvalues:    24.6426    30.6027    40.6982
     24  H    Isotropic =    35.4705   Anisotropy =    14.4765
   XX=    30.3361   YX=    -2.2264   ZX=    -0.0300
   XY=    -2.5996   YY=    35.8206   ZY=    -5.6089
   XZ=     1.2297   YZ=    -7.3304   ZZ=    40.2547
   Eigenvalues:    28.9514    32.3385    45.1215
     25  H    Isotropic =    32.5302   Anisotropy =    11.8016
   XX=    31.8786   YX=     2.5707   ZX=     1.9155
   XY=     2.5354   YY=    36.6724   ZY=     5.1746
   XZ=     1.9198   YZ=     5.0510   ZZ=    29.0394
   Eigenvalues:    26.4067    30.7859    40.3979
     26  H    Isotropic =    31.9940   Anisotropy =     9.1783
   XX=    31.9525   YX=    -2.6870   ZX=     0.4778
   XY=    -2.7065   YY=    36.5932   ZY=     2.0952
   XZ=     1.0962   YZ=     2.3819   ZZ=    27.4364
   Eigenvalues:    26.5293    31.3399    38.1129
     27  H    Isotropic =    32.7283   Anisotropy =    11.8276
   XX=    31.1772   YX=    -0.8927   ZX=     1.3658
   XY=    -0.5443   YY=    27.8977   ZY=    -4.3038
   XZ=     1.4389   YZ=    -3.5808   ZZ=    39.1100
   Eigenvalues:    26.6346    30.9370    40.6134
     28  H    Isotropic =    32.4012   Anisotropy =    14.9021
   XX=    41.6500   YX=     1.7641   ZX=     2.7630
   XY=     1.4848   YY=    27.6378   ZY=    -1.0543
   XZ=     2.8574   YZ=    -1.0254   ZZ=    27.9158
   Eigenvalues:    26.1041    28.7636    42.3359
     29  H    Isotropic =    32.4078   Anisotropy =     9.6133
   XX=    29.6748   YX=     0.7847   ZX=    -2.6350
   XY=     0.8676   YY=    32.7402   ZY=     4.5851
   XZ=    -2.5950   YZ=     4.7346   ZZ=    34.8084
   Eigenvalues:    26.9449    31.4618    38.8167
     30  H    Isotropic =    32.5767   Anisotropy =    11.0863
   XX=    32.0451   YX=    -2.8191   ZX=    -0.0102
   XY=    -2.6387   YY=    32.1389   ZY=    -6.5339
   XZ=     0.3141   YZ=    -6.6604   ZZ=    33.5462
   Eigenvalues:    25.6055    32.1570    39.9676
     31  H    Isotropic =    32.4822   Anisotropy =    14.8851
   XX=    39.1198   YX=     4.4290   ZX=    -4.0037
   XY=     4.4139   YY=    28.2121   ZY=    -2.5872
   XZ=    -3.9353   YZ=    -2.4516   ZZ=    30.1146
   Eigenvalues:    26.1991    28.8418    42.4056
 End of Minotr Frequency-dependent properties file   721 does not exist.
 End of Minotr Frequency-dependent properties file   722 does not exist.

 **********************************************************************

            Population analysis using the SCF density.

 **********************************************************************

 Orbital symmetries:
       Occupied  (A) (A) (A) (A) (A) (A) (A) (A) (A) (A) (A) (A)
                 (A) (A) (A) (A) (A) (A) (A) (A) (A) (A) (A) (A)
                 (A) (A) (A) (A) (A) (A) (A) (A) (A) (A) (A) (A)
                 (A) (A) (A) (A) (A) (A) (A) (A)
       Virtual   (A) (A) (A) (A) (A) (A) (A) (A) (A) (A) (A) (A)
                 (A) (A) (A) (A) (A) (A) (A) (A) (A) (A) (A) (A)
                 (A) (A) (A) (A) (A) (A) (A)
 The electronic state is 1-A.
 Alpha  occ. eigenvalues --  -20.23829 -11.08578 -11.04854 -11.04540 -11.04327
 Alpha  occ. eigenvalues --  -11.03812 -11.03780 -11.03695 -11.03285 -11.02758
 Alpha  occ. eigenvalues --  -11.02450  -1.27982  -1.08369  -1.03729  -0.97091
 Alpha  occ. eigenvalues --   -0.94753  -0.88617  -0.87947  -0.79325  -0.78265
 Alpha  occ. eigenvalues --   -0.73382  -0.71867  -0.60842  -0.60177  -0.59529
 Alpha  occ. eigenvalues --   -0.57243  -0.56549  -0.54023  -0.53193  -0.52507
 Alpha  occ. eigenvalues --   -0.51730  -0.50082  -0.49297  -0.47558  -0.47183
 Alpha  occ. eigenvalues --   -0.45360  -0.44622  -0.43160  -0.42645  -0.41693
 Alpha  occ. eigenvalues --   -0.40712  -0.39091  -0.35940  -0.32334
 Alpha virt. eigenvalues --    0.53816   0.54539   0.56860   0.60464   0.60984
 Alpha virt. eigenvalues --    0.61539   0.62756   0.65064   0.66731   0.68020
 Alpha virt. eigenvalues --    0.68350   0.69628   0.70769   0.71808   0.72156
 Alpha virt. eigenvalues --    0.72843   0.73767   0.74101   0.75621   0.75974
 Alpha virt. eigenvalues --    0.76754   0.77492   0.78241   0.78998   0.80298
 Alpha virt. eigenvalues --    0.81331   0.82160   0.82692   0.82842   0.84040
 Alpha virt. eigenvalues --    0.84632
          Condensed to atoms (all electrons):
              1          2          3          4          5          6
     1  C    4.739533   0.365615   0.000702   0.000747   0.000001  -0.024294
     2  C    0.365615   4.743606  -0.019741  -0.022655  -0.003006   0.364411
     3  C    0.000702  -0.019741   4.741335  -0.021472   0.355882  -0.003545
     4  C    0.000747  -0.022655  -0.021472   4.758913   0.360142   0.363296
     5  C    0.000001  -0.003006   0.355882   0.360142   4.793494  -0.021187
     6  C   -0.024294   0.364411  -0.003545   0.363296  -0.021187   4.756365
     7  C   -0.024261   0.362459   0.357878  -0.003469  -0.024034  -0.024156
     8  O   -0.000001   0.000267   0.269424   0.000233  -0.017233   0.000001
     9  C    0.000000   0.000004  -0.017991  -0.021733   0.358644   0.000643
    10  C    0.000000   0.000000  -0.000286   0.000656  -0.021487  -0.000004
    11  C    0.000000   0.000000  -0.002498  -0.001295  -0.020260   0.000003
    12  H    0.382376  -0.020317   0.000012  -0.000018   0.000000   0.001294
    13  H    0.382351  -0.020314  -0.000016   0.000013   0.000000  -0.002234
    14  H    0.382245  -0.020721   0.000008   0.000009   0.000001  -0.002222
    15  H   -0.024002   0.381975  -0.001820  -0.001866   0.000073  -0.024004
    16  H   -0.000001  -0.001200   0.378753  -0.001254  -0.023672   0.000079
    17  H   -0.000016   0.001282   0.001142   0.382561  -0.020985  -0.022084
    18  H    0.000006  -0.001894  -0.001874   0.381347  -0.021846  -0.023361
    19  H   -0.000006   0.000103  -0.024925  -0.023686   0.378277  -0.002105
    20  H   -0.002486  -0.022407   0.000049  -0.022957  -0.001792   0.381116
    21  H   -0.002044  -0.021339   0.000017  -0.021620   0.001209   0.382625
    22  H   -0.002591  -0.021637  -0.022877   0.000098  -0.001722  -0.001803
    23  H   -0.002027  -0.020552  -0.021302   0.000013   0.001160   0.001253
    24  H    0.000000  -0.000005  -0.042222  -0.000004  -0.003040   0.000005
    25  H    0.000000   0.000000   0.001041  -0.004155  -0.023637   0.000032
    26  H    0.000000   0.000000  -0.000011  -0.000005  -0.000852   0.000000
    27  H    0.000000   0.000000   0.000030   0.000026  -0.002908  -0.000001
    28  H    0.000000   0.000000  -0.000009  -0.000015   0.001159   0.000000
    29  H    0.000000   0.000000  -0.000665   0.000035  -0.001379  -0.000001
    30  H    0.000000   0.000001  -0.000043  -0.000638  -0.001725  -0.000003
    31  H    0.000000   0.000000   0.000026   0.000011   0.001116   0.000000
              7          8          9         10         11         12
     1  C   -0.024261  -0.000001   0.000000   0.000000   0.000000   0.382376
     2  C    0.362459   0.000267   0.000004   0.000000   0.000000  -0.020317
     3  C    0.357878   0.269424  -0.017991  -0.000286  -0.002498   0.000012
     4  C   -0.003469   0.000233  -0.021733   0.000656  -0.001295  -0.000018
     5  C   -0.024034  -0.017233   0.358644  -0.021487  -0.020260   0.000000
     6  C   -0.024156   0.000001   0.000643  -0.000004   0.000003   0.001294
     7  C    4.784123  -0.020902   0.000557  -0.000004   0.000010  -0.002245
     8  O   -0.020902   7.845900  -0.000189  -0.001145   0.000011   0.000000
     9  C    0.000557  -0.000189   4.738277   0.364134   0.364380   0.000000
    10  C   -0.000004  -0.001145   0.364134   4.747126  -0.025883   0.000000
    11  C    0.000010   0.000011   0.364380  -0.025883   4.741902   0.000000
    12  H   -0.002245   0.000000   0.000000   0.000000   0.000000   0.629669
    13  H    0.001297   0.000000   0.000000   0.000000   0.000000  -0.021576
    14  H   -0.002236   0.000000   0.000000   0.000000   0.000000  -0.021690
    15  H   -0.024110   0.000002  -0.000003   0.000000   0.000000  -0.002283
    16  H   -0.025014  -0.018781  -0.001778   0.000016  -0.000660   0.000001
    17  H    0.000001  -0.000004  -0.002529   0.000023   0.000053   0.000000
    18  H    0.000084   0.000001  -0.001751   0.000000  -0.000647   0.000000
    19  H   -0.001941  -0.001163  -0.024133  -0.003827   0.001117   0.000000
    20  H   -0.001816  -0.000001   0.000005   0.000000  -0.000001   0.000015
    21  H    0.001266   0.000000  -0.000013   0.000000   0.000000   0.000013
    22  H    0.379058  -0.001454   0.000001   0.000000   0.000000  -0.000016
    23  H    0.382105  -0.000581  -0.000012   0.000000   0.000000   0.000242
    24  H   -0.003022   0.257744  -0.000002  -0.000158   0.000005   0.000000
    25  H   -0.000014  -0.000008   0.381703  -0.025734  -0.024700   0.000000
    26  H    0.000001   0.000224  -0.019803   0.382724  -0.002864   0.000000
    27  H   -0.000001  -0.000015  -0.020383   0.381858   0.001305   0.000000
    28  H    0.000000   0.000017  -0.020183   0.381692  -0.001655   0.000000
    29  H    0.000003   0.000043  -0.020254  -0.002490   0.382786   0.000000
    30  H   -0.000002   0.000002  -0.019871   0.001325   0.382279   0.000000
    31  H    0.000000  -0.000001  -0.019930  -0.002261   0.382396   0.000000
             13         14         15         16         17         18
     1  C    0.382351   0.382245  -0.024002  -0.000001  -0.000016   0.000006
     2  C   -0.020314  -0.020721   0.381975  -0.001200   0.001282  -0.001894
     3  C   -0.000016   0.000008  -0.001820   0.378753   0.001142  -0.001874
     4  C    0.000013   0.000009  -0.001866  -0.001254   0.382561   0.381347
     5  C    0.000000   0.000001   0.000073  -0.023672  -0.020985  -0.021846
     6  C   -0.002234  -0.002222  -0.024004   0.000079  -0.022084  -0.023361
     7  C    0.001297  -0.002236  -0.024110  -0.025014   0.000001   0.000084
     8  O    0.000000   0.000000   0.000002  -0.018781  -0.000004   0.000001
     9  C    0.000000   0.000000  -0.000003  -0.001778  -0.002529  -0.001751
    10  C    0.000000   0.000000   0.000000   0.000016   0.000023   0.000000
    11  C    0.000000   0.000000   0.000000  -0.000660   0.000053  -0.000647
    12  H   -0.021576  -0.021690  -0.002283   0.000001   0.000000   0.000000
    13  H    0.630008  -0.021695  -0.002283   0.000000  -0.000001   0.000002
    14  H   -0.021695   0.630907   0.001884  -0.000001   0.000000  -0.000001
    15  H   -0.002283   0.001884   0.649752   0.000236   0.000006   0.000293
    16  H    0.000000  -0.000001   0.000236   0.630171  -0.000008   0.000251
    17  H   -0.000001   0.000000   0.000006  -0.000008   0.640527  -0.023303
    18  H    0.000002  -0.000001   0.000293   0.000251  -0.023303   0.643665
    19  H    0.000000  -0.000001   0.000005   0.001767  -0.002498   0.001891
    20  H   -0.000007   0.000350   0.001886   0.000002  -0.002764   0.001961
    21  H    0.000235   0.000001  -0.002542  -0.000006  -0.001990  -0.002783
    22  H    0.000018   0.000351   0.001892   0.001825  -0.000010   0.000004
    23  H    0.000013  -0.000002  -0.002577  -0.003039   0.000002  -0.000009
    24  H    0.000000   0.000000  -0.000001   0.003589   0.000000   0.000000
    25  H    0.000000   0.000000   0.000000   0.000003   0.000115   0.000041
    26  H    0.000000   0.000000   0.000000   0.000000  -0.000001   0.000000
    27  H    0.000000   0.000000   0.000000   0.000000   0.000005   0.000000
    28  H    0.000000   0.000000   0.000000  -0.000001  -0.000001   0.000000
    29  H    0.000000   0.000000   0.000000  -0.000830  -0.000001   0.000034
    30  H    0.000000   0.000000   0.000000  -0.000018   0.000039  -0.000482
    31  H    0.000000   0.000000   0.000000   0.000005  -0.000004  -0.000007
             19         20         21         22         23         24
     1  C   -0.000006  -0.002486  -0.002044  -0.002591  -0.002027   0.000000
     2  C    0.000103  -0.022407  -0.021339  -0.021637  -0.020552  -0.000005
     3  C   -0.024925   0.000049   0.000017  -0.022877  -0.021302  -0.042222
     4  C   -0.023686  -0.022957  -0.021620   0.000098   0.000013  -0.000004
     5  C    0.378277  -0.001792   0.001209  -0.001722   0.001160  -0.003040
     6  C   -0.002105   0.381116   0.382625  -0.001803   0.001253   0.000005
     7  C   -0.001941  -0.001816   0.001266   0.379058   0.382105  -0.003022
     8  O   -0.001163  -0.000001   0.000000  -0.001454  -0.000581   0.257744
     9  C   -0.024133   0.000005  -0.000013   0.000001  -0.000012  -0.000002
    10  C   -0.003827   0.000000   0.000000   0.000000   0.000000  -0.000158
    11  C    0.001117  -0.000001   0.000000   0.000000   0.000000   0.000005
    12  H    0.000000   0.000015   0.000013  -0.000016   0.000242   0.000000
    13  H    0.000000  -0.000007   0.000235   0.000018   0.000013   0.000000
    14  H   -0.000001   0.000350   0.000001   0.000351  -0.000002   0.000000
    15  H    0.000005   0.001886  -0.002542   0.001892  -0.002577  -0.000001
    16  H    0.001767   0.000002  -0.000006   0.001825  -0.003039   0.003589
    17  H   -0.002498  -0.002764  -0.001990  -0.000010   0.000002   0.000000
    18  H    0.001891   0.001961  -0.002783   0.000004  -0.000009   0.000000
    19  H    0.662125   0.000312   0.000011   0.000245  -0.000001   0.000730
    20  H    0.000312   0.645148  -0.023375   0.000293   0.000003   0.000000
    21  H    0.000011  -0.023375   0.639516   0.000007  -0.000033   0.000000
    22  H    0.000245   0.000293   0.000007   0.649933  -0.024534   0.000679
    23  H   -0.000001   0.000003  -0.000033  -0.024534   0.632818  -0.000014
    24  H    0.000730   0.000000   0.000000   0.000679  -0.000014   0.609424
    25  H   -0.001165   0.000003  -0.000002   0.000000   0.000000  -0.000005
    26  H    0.000031   0.000000   0.000000   0.000000   0.000000  -0.000450
    27  H    0.000206   0.000000   0.000000   0.000000   0.000000  -0.000065
    28  H    0.000048   0.000000   0.000000   0.000000   0.000000   0.000004
    29  H   -0.000001   0.000000   0.000000   0.000000   0.000001  -0.000010
    30  H    0.000007   0.000000   0.000001   0.000000   0.000000  -0.000001
    31  H   -0.000029   0.000000   0.000000   0.000000   0.000000   0.000000
             25         26         27         28         29         30
     1  C    0.000000   0.000000   0.000000   0.000000   0.000000   0.000000
     2  C    0.000000   0.000000   0.000000   0.000000   0.000000   0.000001
     3  C    0.001041  -0.000011   0.000030  -0.000009  -0.000665  -0.000043
     4  C   -0.004155  -0.000005   0.000026  -0.000015   0.000035  -0.000638
     5  C   -0.023637  -0.000852  -0.002908   0.001159  -0.001379  -0.001725
     6  C    0.000032   0.000000  -0.000001   0.000000  -0.000001  -0.000003
     7  C   -0.000014   0.000001  -0.000001   0.000000   0.000003  -0.000002
     8  O   -0.000008   0.000224  -0.000015   0.000017   0.000043   0.000002
     9  C    0.381703  -0.019803  -0.020383  -0.020183  -0.020254  -0.019871
    10  C   -0.025734   0.382724   0.381858   0.381692  -0.002490   0.001325
    11  C   -0.024700  -0.002864   0.001305  -0.001655   0.382786   0.382279
    12  H    0.000000   0.000000   0.000000   0.000000   0.000000   0.000000
    13  H    0.000000   0.000000   0.000000   0.000000   0.000000   0.000000
    14  H    0.000000   0.000000   0.000000   0.000000   0.000000   0.000000
    15  H    0.000000   0.000000   0.000000   0.000000   0.000000   0.000000
    16  H    0.000003   0.000000   0.000000  -0.000001  -0.000830  -0.000018
    17  H    0.000115  -0.000001   0.000005  -0.000001  -0.000001   0.000039
    18  H    0.000041   0.000000   0.000000   0.000000   0.000034  -0.000482
    19  H   -0.001165   0.000031   0.000206   0.000048  -0.000001   0.000007
    20  H    0.000003   0.000000   0.000000   0.000000   0.000000   0.000000
    21  H   -0.000002   0.000000   0.000000   0.000000   0.000000   0.000001
    22  H    0.000000   0.000000   0.000000   0.000000   0.000000   0.000000
    23  H    0.000000   0.000000   0.000000   0.000000   0.000001   0.000000
    24  H   -0.000005  -0.000450  -0.000065   0.000004  -0.000010  -0.000001
    25  H    0.656255   0.001941  -0.001546  -0.003733   0.001912  -0.001987
    26  H    0.001941   0.615452  -0.021389  -0.022119   0.000376   0.000023
    27  H   -0.001546  -0.021389   0.637756  -0.021863   0.000015  -0.000037
    28  H   -0.003733  -0.022119  -0.021863   0.635007  -0.000007   0.000014
    29  H    0.001912   0.000376   0.000015  -0.000007   0.624961  -0.021735
    30  H   -0.001987   0.000023  -0.000037   0.000014  -0.021735   0.633109
    31  H   -0.002819  -0.000030   0.000027   0.000108  -0.021863  -0.021973
             31
     1  C    0.000000
     2  C    0.000000
     3  C    0.000026
     4  C    0.000011
     5  C    0.001116
     6  C    0.000000
     7  C    0.000000
     8  O   -0.000001
     9  C   -0.019930
    10  C   -0.002261
    11  C    0.382396
    12  H    0.000000
    13  H    0.000000
    14  H    0.000000
    15  H    0.000000
    16  H    0.000005
    17  H   -0.000004
    18  H   -0.000007
    19  H   -0.000029
    20  H    0.000000
    21  H    0.000000
    22  H    0.000000
    23  H    0.000000
    24  H    0.000000
    25  H   -0.002819
    26  H   -0.000030
    27  H    0.000027
    28  H    0.000108
    29  H   -0.021863
    30  H   -0.021973
    31  H    0.630779
 Mulliken atomic charges:
              1
     1  C   -0.171847
     2  C   -0.023936
     3  C    0.074998
     4  C   -0.101257
     5  C   -0.040392
     6  C   -0.100118
     7  C   -0.111616
     8  O   -0.312391
     9  C   -0.017789
    10  C   -0.176273
    11  C   -0.175783
    12  H    0.054522
    13  H    0.054189
    14  H    0.052812
    15  H    0.047487
    16  H    0.059563
    17  H    0.050443
    18  H    0.048380
    19  H    0.038602
    20  H    0.046464
    21  H    0.050846
    22  H    0.042240
    23  H    0.057071
    24  H    0.176821
    25  H    0.046461
    26  H    0.066751
    27  H    0.046982
    28  H    0.051538
    29  H    0.059069
    30  H    0.051716
    31  H    0.054447
 Sum of Mulliken atomic charges =   0.00000
 Mulliken charges with hydrogens summed into heavy atoms:
              1
     1  C   -0.010323
     2  C    0.023551
     3  C    0.134561
     4  C   -0.002434
     5  C   -0.001790
     6  C   -0.002808
     7  C   -0.012304
     8  O   -0.135571
     9  C    0.028672
    10  C   -0.011003
    11  C   -0.010551
 Sum of Mulliken charges with hydrogens summed into heavy atoms =   0.00000
 Electronic spatial extent (au):  <R**2>=           2180.8632
 Charge=              0.0000 electrons
 Dipole moment (field-independent basis, Debye):
    X=              0.7366    Y=             -0.8786    Z=             -0.8756  Tot=              1.4426
 Quadrupole moment (field-independent basis, Debye-Ang):
   XX=            -69.2056   YY=            -70.2060   ZZ=            -66.0632
   XY=              1.7734   XZ=              0.9582   YZ=             -2.5587
 Traceless Quadrupole moment (field-independent basis, Debye-Ang):
   XX=             -0.7140   YY=             -1.7144   ZZ=              2.4284
   XY=              1.7734   XZ=              0.9582   YZ=             -2.5587
 Octapole moment (field-independent basis, Debye-Ang**2):
  XXX=             -7.7469  YYY=              5.0551  ZZZ=             -1.1131  XYY=              2.9693
  XXY=              0.5638  XXZ=              1.0636  XZZ=             -0.2135  YZZ=              6.8487
  YYZ=             -5.6356  XYZ=              1.1151
 Hexadecapole moment (field-independent basis, Debye-Ang**3):
 XXXX=          -1981.4726 YYYY=           -567.8165 ZZZZ=           -263.6191 XXXY=             -3.9083
 XXXZ=              0.4628 YYYX=             -2.7778 YYYZ=            -12.9288 ZZZX=              0.2877
 ZZZY=             -1.4635 XXYY=           -419.1445 XXZZ=           -375.3651 YYZZ=           -130.9891
 XXYZ=              1.3742 YYXZ=              7.4162 ZZXY=             -3.3986
 N-N= 6.915061712553D+02 E-N=-2.454948694565D+03  KE= 4.555448859748D+02
 ******************************Gaussian NBO Version 3.1******************************
             N A T U R A L   A T O M I C   O R B I T A L   A N D
          N A T U R A L   B O N D   O R B I T A L   A N A L Y S I S
 ******************************Gaussian NBO Version 3.1******************************
       /RESON  / : Allow strongly delocalized NBO set
       /NLMO   / : Form Natural Localized Molecular Orbitals
       /NMR /    : Analyze NMR Sheilding Tensor 

 Analyzing the SCF density

 Job title: comment                                                         

 Storage needed:     19864 in NPA,     23691 in NBO,     45933 in NLMO (  33549317 available)


 NATURAL POPULATIONS:  Natural atomic orbital occupancies 
                                                          
   NAO  Atom  No  lang   Type(AO)    Occupancy      Energy
 ----------------------------------------------------------
     1    C    1  S      Cor( 1S)     1.99997     -10.96635
     2    C    1  S      Val( 2S)     1.07945      -0.18266
     3    C    1  px     Val( 2p)     0.99300       0.08663
     4    C    1  py     Val( 2p)     1.02810       0.08259
     5    C    1  pz     Val( 2p)     1.02650       0.08332

     6    C    2  S      Cor( 1S)     1.99997     -10.99063
     7    C    2  S      Val( 2S)     1.07803      -0.19240
     8    C    2  px     Val( 2p)     0.95485       0.10681
     9    C    2  py     Val( 2p)     0.96091       0.10637
    10    C    2  pz     Val( 2p)     0.99214       0.10047

    11    C    3  S      Cor( 1S)     1.99989     -11.03480
    12    C    3  S      Val( 2S)     1.08764      -0.21669
    13    C    3  px     Val( 2p)     0.92129       0.10007
    14    C    3  py     Val( 2p)     0.85412       0.12005
    15    C    3  pz     Val( 2p)     0.99630       0.07891

    16    C    4  S      Cor( 1S)     1.99996     -10.97630
    17    C    4  S      Val( 2S)     1.08521      -0.19144
    18    C    4  px     Val( 2p)     0.97358       0.09696
    19    C    4  py     Val( 2p)     0.98767       0.09308
    20    C    4  pz     Val( 2p)     1.01675       0.09106

    21    C    5  S      Cor( 1S)     1.99996     -10.98875
    22    C    5  S      Val( 2S)     1.10387      -0.21365
    23    C    5  px     Val( 2p)     0.96212       0.10182
    24    C    5  py     Val( 2p)     0.96549       0.10073
    25    C    5  pz     Val( 2p)     0.98757       0.09812

    26    C    6  S      Cor( 1S)     1.99997     -10.97590
    27    C    6  S      Val( 2S)     1.08312      -0.18942
    28    C    6  px     Val( 2p)     0.98037       0.09557
    29    C    6  py     Val( 2p)     0.99658       0.09244
    30    C    6  pz     Val( 2p)     1.00294       0.09352

    31    C    7  S      Cor( 1S)     1.99996     -10.97520
    32    C    7  S      Val( 2S)     1.09311      -0.19900
    33    C    7  px     Val( 2p)     0.98455       0.08729
    34    C    7  py     Val( 2p)     0.99371       0.09171
    35    C    7  pz     Val( 2p)     1.01658       0.08635

    36    O    8  S      Cor( 1S)     1.99999     -20.14184
    37    O    8  S      Val( 2S)     1.74816      -0.99802
    38    O    8  px     Val( 2p)     1.80391      -0.30268
    39    O    8  py     Val( 2p)     1.46662      -0.16232
    40    O    8  pz     Val( 2p)     1.31425      -0.10912

    41    C    9  S      Cor( 1S)     1.99996     -10.98954
    42    C    9  S      Val( 2S)     1.08476      -0.19406
    43    C    9  px     Val( 2p)     0.94734       0.11536
    44    C    9  py     Val( 2p)     0.98460       0.10454
    45    C    9  pz     Val( 2p)     0.96007       0.11336

    46    C   10  S      Cor( 1S)     1.99997     -10.95819
    47    C   10  S      Val( 2S)     1.08174      -0.17697
    48    C   10  px     Val( 2p)     1.01271       0.09036
    49    C   10  py     Val( 2p)     1.02076       0.08992
    50    C   10  pz     Val( 2p)     1.01740       0.09213

    51    C   11  S      Cor( 1S)     1.99997     -10.96124
    52    C   11  S      Val( 2S)     1.07963      -0.17819
    53    C   11  px     Val( 2p)     1.02713       0.08582
    54    C   11  py     Val( 2p)     1.03012       0.08752
    55    C   11  pz     Val( 2p)     0.99527       0.09176

    56    H   12  S      Val( 1S)     0.96281       0.07391

    57    H   13  S      Val( 1S)     0.96309       0.07358

    58    H   14  S      Val( 1S)     0.96441       0.07219

    59    H   15  S      Val( 1S)     0.97645       0.06287

    60    H   16  S      Val( 1S)     0.97569       0.05759

    61    H   17  S      Val( 1S)     0.97055       0.06928

    62    H   18  S      Val( 1S)     0.97284       0.06896

    63    H   19  S      Val( 1S)     0.98588       0.05451

    64    H   20  S      Val( 1S)     0.97410       0.06596

    65    H   21  S      Val( 1S)     0.96978       0.06900

    66    H   22  S      Val( 1S)     0.97746       0.05920

    67    H   23  S      Val( 1S)     0.96393       0.07271

    68    H   24  S      Val( 1S)     0.81077       0.07529

    69    H   25  S      Val( 1S)     0.97882       0.06686

    70    H   26  S      Val( 1S)     0.95221       0.09307

    71    H   27  S      Val( 1S)     0.96962       0.07427

    72    H   28  S      Val( 1S)     0.96536       0.07802

    73    H   29  S      Val( 1S)     0.95874       0.08373

    74    H   30  S      Val( 1S)     0.96548       0.07771

    75    H   31  S      Val( 1S)     0.96245       0.07765


 Summary of Natural Population Analysis:                  
                                                          
                                       Natural Population 
                Natural  -----------------------------------------------
    Atom  No    Charge         Core      Valence    Rydberg      Total
 -----------------------------------------------------------------------
      C    1   -0.12703      1.99997     4.12705    0.00000     6.12703
      C    2    0.01411      1.99997     3.98592    0.00000     5.98589
      C    3    0.14075      1.99989     3.85935    0.00000     5.85925
      C    4   -0.06317      1.99996     4.06321    0.00000     6.06317
      C    5   -0.01900      1.99996     4.01905    0.00000     6.01900
      C    6   -0.06297      1.99997     4.06300    0.00000     6.06297
      C    7   -0.08791      1.99996     4.08795    0.00000     6.08791
      O    8   -0.33292      1.99999     6.33293    0.00000     8.33292
      C    9    0.02328      1.99996     3.97676    0.00000     5.97672
      C   10   -0.13258      1.99997     4.13261    0.00000     6.13258
      C   11   -0.13212      1.99997     4.13215    0.00000     6.13212
      H   12    0.03719      0.00000     0.96281    0.00000     0.96281
      H   13    0.03691      0.00000     0.96309    0.00000     0.96309
      H   14    0.03559      0.00000     0.96441    0.00000     0.96441
      H   15    0.02355      0.00000     0.97645    0.00000     0.97645
      H   16    0.02431      0.00000     0.97569    0.00000     0.97569
      H   17    0.02945      0.00000     0.97055    0.00000     0.97055
      H   18    0.02716      0.00000     0.97284    0.00000     0.97284
      H   19    0.01412      0.00000     0.98588    0.00000     0.98588
      H   20    0.02590      0.00000     0.97410    0.00000     0.97410
      H   21    0.03022      0.00000     0.96978    0.00000     0.96978
      H   22    0.02254      0.00000     0.97746    0.00000     0.97746
      H   23    0.03607      0.00000     0.96393    0.00000     0.96393
      H   24    0.18923      0.00000     0.81077    0.00000     0.81077
      H   25    0.02118      0.00000     0.97882    0.00000     0.97882
      H   26    0.04779      0.00000     0.95221    0.00000     0.95221
      H   27    0.03038      0.00000     0.96962    0.00000     0.96962
      H   28    0.03464      0.00000     0.96536    0.00000     0.96536
      H   29    0.04126      0.00000     0.95874    0.00000     0.95874
      H   30    0.03452      0.00000     0.96548    0.00000     0.96548
      H   31    0.03755      0.00000     0.96245    0.00000     0.96245
 =======================================================================
   * Total *    0.00000     21.99957    66.00043    0.00000    88.00000

                                 Natural Population      
 --------------------------------------------------------
   Core                      21.99957 ( 99.9981% of  22)
   Valence                   66.00043 (100.0006% of  66)
   Natural Minimal Basis     88.00000 (100.0000% of  88)
   Natural Rydberg Basis      0.00000 (  0.0000% of  88)
 --------------------------------------------------------

    Atom  No          Natural Electron Configuration
 ----------------------------------------------------------------------------
      C    1      [core]2S( 1.08)2p( 3.05)
      C    2      [core]2S( 1.08)2p( 2.91)
      C    3      [core]2S( 1.09)2p( 2.77)
      C    4      [core]2S( 1.09)2p( 2.98)
      C    5      [core]2S( 1.10)2p( 2.92)
      C    6      [core]2S( 1.08)2p( 2.98)
      C    7      [core]2S( 1.09)2p( 2.99)
      O    8      [core]2S( 1.75)2p( 4.58)
      C    9      [core]2S( 1.08)2p( 2.89)
      C   10      [core]2S( 1.08)2p( 3.05)
      C   11      [core]2S( 1.08)2p( 3.05)
      H   12            1S( 0.96)
      H   13            1S( 0.96)
      H   14            1S( 0.96)
      H   15            1S( 0.98)
      H   16            1S( 0.98)
      H   17            1S( 0.97)
      H   18            1S( 0.97)
      H   19            1S( 0.99)
      H   20            1S( 0.97)
      H   21            1S( 0.97)
      H   22            1S( 0.98)
      H   23            1S( 0.96)
      H   24            1S( 0.81)
      H   25            1S( 0.98)
      H   26            1S( 0.95)
      H   27            1S( 0.97)
      H   28            1S( 0.97)
      H   29            1S( 0.96)
      H   30            1S( 0.97)
      H   31            1S( 0.96)


 NATURAL BOND ORBITAL ANALYSIS:

                       Occupancies       Lewis Structure    Low   High
           Occ.    -------------------  -----------------   occ   occ
  Cycle   Thresh.   Lewis   Non-Lewis     CR  BD  3C  LP    (L)   (NL)   Dev
 =============================================================================
   1(1)    1.90    87.63382   0.36618     11  31   0   2     0      0    0.02
 -----------------------------------------------------------------------------

 Structure accepted: No low occupancy Lewis orbitals

 --------------------------------------------------------
   Core                     21.99957 ( 99.998% of  22)
   Valence Lewis            65.63425 ( 99.446% of  66)
  ==================       ============================
   Total Lewis              87.63382 ( 99.584% of  88)
  -----------------------------------------------------
   Valence non-Lewis         0.36618 (  0.416% of  88)
   Rydberg non-Lewis         0.00000 (  0.000% of  88)
  ==================       ============================
   Total non-Lewis           0.36618 (  0.416% of  88)
 --------------------------------------------------------


       (Occupancy)   Bond orbital/ Coefficients/ Hybrids
 ---------------------------------------------------------------------------------
     1. (1.98908) BD ( 1) C   1 - C   2  
                ( 50.81%)   0.7128* C   1 s( 25.75%)p 2.88( 74.25%)
                                            0.0001  0.5074 -0.8281 -0.1505  0.1846
                ( 49.19%)   0.7013* C   2 s( 25.16%)p 2.97( 74.84%)
                                            0.0000  0.5016  0.8253  0.1563 -0.2068
     2. (1.99503) BD ( 1) C   1 - H  12  
                ( 51.87%)   0.7202* C   1 s( 24.71%)p 3.05( 75.29%)
                                            0.0000  0.4971  0.2952  0.6525  0.4899
                ( 48.13%)   0.6937* H  12 s(100.00%)
                                            1.0000
     3. (1.99499) BD ( 1) C   1 - H  13  
                ( 51.86%)   0.7201* C   1 s( 24.71%)p 3.05( 75.29%)
                                            0.0000  0.4971  0.4698 -0.7117  0.1603
                ( 48.14%)   0.6938* H  13 s(100.00%)
                                            1.0000
     4. (1.99545) BD ( 1) C   1 - H  14  
                ( 51.82%)   0.7199* C   1 s( 24.83%)p 3.03( 75.17%)
                                            0.0000  0.4983  0.0802  0.2124 -0.8368
                ( 48.18%)   0.6941* H  14 s(100.00%)
                                            1.0000
     5. (1.98530) BD ( 1) C   2 - C   6  
                ( 49.67%)   0.7047* C   2 s( 25.06%)p 2.99( 74.94%)
                                            0.0000  0.5006 -0.3001 -0.6556 -0.4790
                ( 50.33%)   0.7095* C   6 s( 25.32%)p 2.95( 74.68%)
                                            0.0001  0.5032  0.2935  0.6641  0.4687
     6. (1.98407) BD ( 1) C   2 - C   7  
                ( 49.40%)   0.7029* C   2 s( 25.02%)p 3.00( 74.98%)
                                            0.0000  0.5002 -0.4754  0.7083 -0.1487
                ( 50.60%)   0.7113* C   7 s( 25.60%)p 2.91( 74.40%)
                                            0.0001  0.5060  0.4693 -0.7110  0.1347
     7. (1.98487) BD ( 1) C   2 - H  15  
                ( 51.11%)   0.7149* C   2 s( 24.75%)p 3.04( 75.25%)
                                            0.0000  0.4975 -0.0521 -0.2100  0.8400
                ( 48.89%)   0.6992* H  15 s(100.00%)
                                            1.0000
     8. (1.98331) BD ( 1) C   3 - C   5  
                ( 49.91%)   0.7065* C   3 s( 25.75%)p 2.88( 74.25%)
                                            0.0001  0.5075 -0.3106 -0.6557 -0.4649
                ( 50.09%)   0.7077* C   5 s( 25.36%)p 2.94( 74.64%)
                                            0.0000  0.5036  0.2805  0.6573  0.4855
     9. (1.98668) BD ( 1) C   3 - C   7  
                ( 49.36%)   0.7026* C   3 s( 25.39%)p 2.94( 74.61%)
                                            0.0000  0.5038  0.8365  0.1204 -0.1786
                ( 50.64%)   0.7116* C   7 s( 25.08%)p 2.99( 74.92%)
                                            0.0000  0.5008 -0.8346 -0.1642  0.1600
    10. (1.98767) BD ( 1) C   3 - O   8  
                ( 41.07%)   0.6408* C   3 s( 22.51%)p 3.44( 77.49%)
                                            0.0000  0.4744 -0.4381  0.7310 -0.2204
                ( 58.93%)   0.7677* O   8 s( 16.66%)p 5.00( 83.34%)
                                            0.0000  0.4081  0.4606 -0.7780  0.1265
    11. (1.98624) BD ( 1) C   3 - H  16  
                ( 51.35%)   0.7166* C   3 s( 26.35%)p 2.80( 73.65%)
                                            0.0000  0.5133 -0.1091 -0.1456  0.8387
                ( 48.65%)   0.6975* H  16 s(100.00%)
                                            1.0000
    12. (1.98339) BD ( 1) C   4 - C   5  
                ( 50.39%)   0.7099* C   4 s( 25.29%)p 2.95( 74.71%)
                                            0.0001  0.5029 -0.4766  0.7082 -0.1356
                ( 49.61%)   0.7043* C   5 s( 24.78%)p 3.03( 75.22%)
                                            0.0000  0.4978  0.4786 -0.7050  0.1616
    13. (1.98926) BD ( 1) C   4 - C   6  
                ( 49.99%)   0.7070* C   4 s( 25.15%)p 2.98( 74.85%)
                                            0.0000  0.5015  0.8309  0.1705 -0.1705
                ( 50.01%)   0.7072* C   6 s( 25.11%)p 2.98( 74.89%)
                                            0.0000  0.5011 -0.8371 -0.1329  0.1746
    14. (1.98976) BD ( 1) C   4 - H  17  
                ( 51.45%)   0.7173* C   4 s( 24.86%)p 3.02( 75.14%)
                                            0.0000  0.4986 -0.2760 -0.6387 -0.5169
                ( 48.55%)   0.6968* H  17 s(100.00%)
                                            1.0000
    15. (1.99017) BD ( 1) C   4 - H  18  
                ( 51.39%)   0.7169* C   4 s( 24.70%)p 3.05( 75.30%)
                                            0.0000  0.4970 -0.0792 -0.2478  0.8278
                ( 48.61%)   0.6972* H  18 s(100.00%)
                                            1.0000
    16. (1.97904) BD ( 1) C   5 - C   9  
                ( 50.30%)   0.7093* C   5 s( 25.58%)p 2.91( 74.42%)
                                            0.0001  0.5057 -0.8282 -0.1646  0.1768
                ( 49.70%)   0.7050* C   9 s( 25.41%)p 2.93( 74.59%)
                                            0.0001  0.5041  0.8300  0.2193 -0.0938
    17. (1.98338) BD ( 1) C   5 - H  19  
                ( 50.62%)   0.7115* C   5 s( 24.28%)p 3.12( 75.72%)
                                            0.0000  0.4928  0.0798  0.2094 -0.8408
                ( 49.38%)   0.7027* H  19 s(100.00%)
                                            1.0000
    18. (1.99074) BD ( 1) C   6 - H  20  
                ( 51.33%)   0.7164* C   6 s( 24.68%)p 3.05( 75.32%)
                                            0.0000  0.4968  0.0929  0.1783 -0.8443
                ( 48.67%)   0.6977* H  20 s(100.00%)
                                            1.0000
    19. (1.98974) BD ( 1) C   6 - H  21  
                ( 51.48%)   0.7175* C   6 s( 24.89%)p 3.02( 75.11%)
                                            0.0000  0.4989  0.4521 -0.7138  0.1926
                ( 48.52%)   0.6965* H  21 s(100.00%)
                                            1.0000
    20. (1.98937) BD ( 1) C   7 - H  22  
                ( 51.15%)   0.7152* C   7 s( 24.44%)p 3.09( 75.56%)
                                            0.0000  0.4943  0.0883  0.2535 -0.8268
                ( 48.85%)   0.6990* H  22 s(100.00%)
                                            1.0000
    21. (1.98937) BD ( 1) C   7 - H  23  
                ( 51.78%)   0.7196* C   7 s( 24.88%)p 3.02( 75.12%)
                                            0.0000  0.4988  0.2744  0.6350  0.5222
                ( 48.22%)   0.6944* H  23 s(100.00%)
                                            1.0000
    22. (1.98941) BD ( 1) O   8 - H  24  
                ( 59.51%)   0.7714* O   8 s( 16.81%)p 4.95( 83.19%)
                                            0.0000 -0.4100 -0.1054 -0.1318  0.8963
                ( 40.49%)   0.6364* H  24 s(100.00%)
                                           -1.0000
    23. (1.98963) BD ( 1) C   9 - C  10  
                ( 49.15%)   0.7011* C   9 s( 25.07%)p 2.99( 74.93%)
                                            0.0000  0.5007 -0.5044  0.6035 -0.3616
                ( 50.85%)   0.7131* C  10 s( 25.81%)p 2.87( 74.19%)
                                            0.0001  0.5081  0.5381 -0.5582  0.3751
    24. (1.99010) BD ( 1) C   9 - C  11  
                ( 49.11%)   0.7008* C   9 s( 25.34%)p 2.95( 74.66%)
                                            0.0000  0.5034 -0.1912 -0.0745  0.8393
                ( 50.89%)   0.7134* C  11 s( 25.82%)p 2.87( 74.18%)
                                            0.0001  0.5082  0.2297  0.1008 -0.8239
    25. (1.98386) BD ( 1) C   9 - H  25  
                ( 50.94%)   0.7137* C   9 s( 24.18%)p 3.14( 75.82%)
                                            0.0000  0.4917 -0.1417 -0.7630 -0.3949
                ( 49.06%)   0.7004* H  25 s(100.00%)
                                            1.0000
    26. (1.99584) BD ( 1) C  10 - H  26  
                ( 52.48%)   0.7244* C  10 s( 25.04%)p 2.99( 74.96%)
                                            0.0000  0.5004  0.0060  0.7509  0.4310
                ( 47.52%)   0.6893* H  26 s(100.00%)
                                            1.0000
    27. (1.99485) BD ( 1) C  10 - H  27  
                ( 51.54%)   0.7179* C  10 s( 24.74%)p 3.04( 75.26%)
                                            0.0000  0.4974  0.2451  0.1376 -0.8207
                ( 48.46%)   0.6962* H  27 s(100.00%)
                                            1.0000
    28. (1.99475) BD ( 1) C  10 - H  28  
                ( 51.73%)   0.7192* C  10 s( 24.40%)p 3.10( 75.60%)
                                            0.0000  0.4940 -0.8064 -0.3251  0.0041
                ( 48.27%)   0.6948* H  28 s(100.00%)
                                            1.0000
    29. (1.99507) BD ( 1) C  11 - H  29  
                ( 52.11%)   0.7218* C  11 s( 24.86%)p 3.02( 75.14%)
                                            0.0000  0.4986  0.0790  0.7532  0.4217
                ( 47.89%)   0.6921* H  29 s(100.00%)
                                            1.0000
    30. (1.99447) BD ( 1) C  11 - H  30  
                ( 51.75%)   0.7194* C  11 s( 24.79%)p 3.03( 75.21%)
                                            0.0000  0.4979  0.5084 -0.5935  0.3762
                ( 48.25%)   0.6946* H  30 s(100.00%)
                                            1.0000
    31. (1.99430) BD ( 1) C  11 - H  31  
                ( 51.86%)   0.7202* C  11 s( 24.53%)p 3.08( 75.47%)
                                            0.0000  0.4953 -0.8262 -0.2651  0.0427
                ( 48.14%)   0.6938* H  31 s(100.00%)
                                            1.0000
    32. (1.99997) CR ( 1) C   1           s(100.00%)
                                            1.0000  0.0000  0.0001  0.0000  0.0000
    33. (1.99997) CR ( 1) C   2           s(100.00%)
                                            1.0000  0.0000  0.0000  0.0000  0.0000
    34. (1.99989) CR ( 1) C   3           s(100.00%)
                                            1.0000  0.0000  0.0000  0.0001  0.0001
    35. (1.99996) CR ( 1) C   4           s(100.00%)
                                            1.0000 -0.0001  0.0000 -0.0001  0.0000
    36. (1.99996) CR ( 1) C   5           s(100.00%)
                                            1.0000  0.0000  0.0000  0.0000  0.0000
    37. (1.99996) CR ( 1) C   6           s(100.00%)
                                            1.0000  0.0000  0.0000 -0.0001  0.0000
    38. (1.99996) CR ( 1) C   7           s(100.00%)
                                            1.0000  0.0000  0.0000  0.0001  0.0000
    39. (1.99999) CR ( 1) O   8           s(100.00%)
                                            1.0000  0.0000  0.0000  0.0000  0.0000
    40. (1.99996) CR ( 1) C   9           s(100.00%)
                                            1.0000  0.0000 -0.0001  0.0000  0.0000
    41. (1.99997) CR ( 1) C  10           s(100.00%)
                                            1.0000  0.0000 -0.0001  0.0000  0.0000
    42. (1.99997) CR ( 1) C  11           s(100.00%)
                                            1.0000  0.0000  0.0000  0.0000  0.0001
    43. (1.99304) LP ( 1) O   8           s( 66.53%)p 0.50( 33.47%)
                                            0.0000  0.8157 -0.2838  0.3228  0.3872
    44. (1.97203) LP ( 2) O   8           s(  0.00%)p 1.00(100.00%)
                                            0.0000  0.0004  0.8344  0.5226  0.1751
    45. (0.01017) BD*( 1) C   1 - C   2  
                ( 49.19%)   0.7013* C   1 s( 25.75%)p 2.88( 74.25%)
                                           -0.0001 -0.5074  0.8281  0.1505 -0.1846
                ( 50.81%)  -0.7128* C   2 s( 25.16%)p 2.97( 74.84%)
                                            0.0000 -0.5016 -0.8253 -0.1563  0.2068
    46. (0.00512) BD*( 1) C   1 - H  12  
                ( 48.13%)   0.6937* C   1 s( 24.71%)p 3.05( 75.29%)
                                            0.0000 -0.4971 -0.2952 -0.6525 -0.4899
                ( 51.87%)  -0.7202* H  12 s(100.00%)
                                           -1.0000
    47. (0.00515) BD*( 1) C   1 - H  13  
                ( 48.14%)   0.6938* C   1 s( 24.71%)p 3.05( 75.29%)
                                            0.0000 -0.4971 -0.4698  0.7117 -0.1603
                ( 51.86%)  -0.7201* H  13 s(100.00%)
                                           -1.0000
    48. (0.00589) BD*( 1) C   1 - H  14  
                ( 48.18%)   0.6941* C   1 s( 24.83%)p 3.03( 75.17%)
                                            0.0000 -0.4983 -0.0802 -0.2124  0.8368
                ( 51.82%)  -0.7199* H  14 s(100.00%)
                                           -1.0000
    49. (0.01592) BD*( 1) C   2 - C   6  
                ( 50.33%)   0.7095* C   2 s( 25.06%)p 2.99( 74.94%)
                                            0.0000  0.5006 -0.3001 -0.6556 -0.4790
                ( 49.67%)  -0.7047* C   6 s( 25.32%)p 2.95( 74.68%)
                                            0.0001  0.5032  0.2935  0.6641  0.4687
    50. (0.01546) BD*( 1) C   2 - C   7  
                ( 50.60%)   0.7113* C   2 s( 25.02%)p 3.00( 74.98%)
                                            0.0000  0.5002 -0.4754  0.7083 -0.1487
                ( 49.40%)  -0.7029* C   7 s( 25.60%)p 2.91( 74.40%)
                                            0.0001  0.5060  0.4693 -0.7110  0.1347
    51. (0.01196) BD*( 1) C   2 - H  15  
                ( 48.89%)   0.6992* C   2 s( 24.75%)p 3.04( 75.25%)
                                            0.0000 -0.4975  0.0521  0.2100 -0.8400
                ( 51.11%)  -0.7149* H  15 s(100.00%)
                                           -1.0000
    52. (0.03341) BD*( 1) C   3 - C   5  
                ( 50.09%)   0.7077* C   3 s( 25.75%)p 2.88( 74.25%)
                                            0.0001  0.5075 -0.3106 -0.6557 -0.4649
                ( 49.91%)  -0.7065* C   5 s( 25.36%)p 2.94( 74.64%)
                                            0.0000  0.5036  0.2805  0.6573  0.4855
    53. (0.02702) BD*( 1) C   3 - C   7  
                ( 50.64%)   0.7116* C   3 s( 25.39%)p 2.94( 74.61%)
                                            0.0000  0.5038  0.8365  0.1204 -0.1786
                ( 49.36%)  -0.7026* C   7 s( 25.08%)p 2.99( 74.92%)
                                            0.0000  0.5008 -0.8346 -0.1642  0.1600
    54. (0.02218) BD*( 1) C   3 - O   8  
                ( 58.93%)   0.7677* C   3 s( 22.51%)p 3.44( 77.49%)
                                            0.0000  0.4744 -0.4381  0.7310 -0.2204
                ( 41.07%)  -0.6408* O   8 s( 16.66%)p 5.00( 83.34%)
                                            0.0000  0.4081  0.4606 -0.7780  0.1265
    55. (0.01845) BD*( 1) C   3 - H  16  
                ( 48.65%)   0.6975* C   3 s( 26.35%)p 2.80( 73.65%)
                                            0.0000 -0.5133  0.1091  0.1456 -0.8387
                ( 51.35%)  -0.7166* H  16 s(100.00%)
                                           -1.0000
    56. (0.01563) BD*( 1) C   4 - C   5  
                ( 49.61%)   0.7043* C   4 s( 25.29%)p 2.95( 74.71%)
                                           -0.0001 -0.5029  0.4766 -0.7082  0.1356
                ( 50.39%)  -0.7099* C   5 s( 24.78%)p 3.03( 75.22%)
                                            0.0000 -0.4978 -0.4786  0.7050 -0.1616
    57. (0.01145) BD*( 1) C   4 - C   6  
                ( 50.01%)   0.7072* C   4 s( 25.15%)p 2.98( 74.85%)
                                            0.0000  0.5015  0.8309  0.1705 -0.1705
                ( 49.99%)  -0.7070* C   6 s( 25.11%)p 2.98( 74.89%)
                                            0.0000  0.5011 -0.8371 -0.1329  0.1746
    58. (0.00876) BD*( 1) C   4 - H  17  
                ( 48.55%)   0.6968* C   4 s( 24.86%)p 3.02( 75.14%)
                                            0.0000 -0.4986  0.2760  0.6387  0.5169
                ( 51.45%)  -0.7173* H  17 s(100.00%)
                                           -1.0000
    59. (0.01051) BD*( 1) C   4 - H  18  
                ( 48.61%)   0.6972* C   4 s( 24.70%)p 3.05( 75.30%)
                                            0.0000 -0.4970  0.0792  0.2478 -0.8278
                ( 51.39%)  -0.7169* H  18 s(100.00%)
                                           -1.0000
    60. (0.02268) BD*( 1) C   5 - C   9  
                ( 49.70%)   0.7050* C   5 s( 25.58%)p 2.91( 74.42%)
                                           -0.0001 -0.5057  0.8282  0.1646 -0.1768
                ( 50.30%)  -0.7093* C   9 s( 25.41%)p 2.93( 74.59%)
                                           -0.0001 -0.5041 -0.8300 -0.2193  0.0938
    61. (0.01292) BD*( 1) C   5 - H  19  
                ( 49.38%)   0.7027* C   5 s( 24.28%)p 3.12( 75.72%)
                                            0.0000 -0.4928 -0.0798 -0.2094  0.8408
                ( 50.62%)  -0.7115* H  19 s(100.00%)
                                           -1.0000
    62. (0.01007) BD*( 1) C   6 - H  20  
                ( 48.67%)   0.6977* C   6 s( 24.68%)p 3.05( 75.32%)
                                            0.0000 -0.4968 -0.0929 -0.1783  0.8443
                ( 51.33%)  -0.7164* H  20 s(100.00%)
                                           -1.0000
    63. (0.00856) BD*( 1) C   6 - H  21  
                ( 48.52%)   0.6965* C   6 s( 24.89%)p 3.02( 75.11%)
                                            0.0000 -0.4989 -0.4521  0.7138 -0.1926
                ( 51.48%)  -0.7175* H  21 s(100.00%)
                                           -1.0000
    64. (0.01091) BD*( 1) C   7 - H  22  
                ( 48.85%)   0.6990* C   7 s( 24.44%)p 3.09( 75.56%)
                                            0.0000 -0.4943 -0.0883 -0.2535  0.8268
                ( 51.15%)  -0.7152* H  22 s(100.00%)
                                           -1.0000
    65. (0.00885) BD*( 1) C   7 - H  23  
                ( 48.22%)   0.6944* C   7 s( 24.88%)p 3.02( 75.12%)
                                            0.0000 -0.4988 -0.2744 -0.6350 -0.5222
                ( 51.78%)  -0.7196* H  23 s(100.00%)
                                           -1.0000
    66. (0.00869) BD*( 1) O   8 - H  24  
                ( 40.49%)   0.6364* O   8 s( 16.81%)p 4.95( 83.19%)
                                            0.0000  0.4100  0.1054  0.1318 -0.8963
                ( 59.51%)  -0.7714* H  24 s(100.00%)
                                            1.0000
    67. (0.01035) BD*( 1) C   9 - C  10  
                ( 50.85%)   0.7131* C   9 s( 25.07%)p 2.99( 74.93%)
                                            0.0000  0.5007 -0.5044  0.6035 -0.3616
                ( 49.15%)  -0.7011* C  10 s( 25.81%)p 2.87( 74.19%)
                                            0.0001  0.5081  0.5381 -0.5582  0.3751
    68. (0.01052) BD*( 1) C   9 - C  11  
                ( 50.89%)   0.7134* C   9 s( 25.34%)p 2.95( 74.66%)
                                            0.0000  0.5034 -0.1912 -0.0745  0.8393
                ( 49.11%)  -0.7008* C  11 s( 25.82%)p 2.87( 74.18%)
                                            0.0001  0.5082  0.2297  0.1008 -0.8239
    69. (0.01102) BD*( 1) C   9 - H  25  
                ( 49.06%)   0.7004* C   9 s( 24.18%)p 3.14( 75.82%)
                                            0.0000 -0.4917  0.1417  0.7630  0.3949
                ( 50.94%)  -0.7137* H  25 s(100.00%)
                                           -1.0000
    70. (0.00723) BD*( 1) C  10 - H  26  
                ( 47.52%)   0.6893* C  10 s( 25.04%)p 2.99( 74.96%)
                                            0.0000 -0.5004 -0.0060 -0.7509 -0.4310
                ( 52.48%)  -0.7244* H  26 s(100.00%)
                                           -1.0000
    71. (0.00550) BD*( 1) C  10 - H  27  
                ( 48.46%)   0.6962* C  10 s( 24.74%)p 3.04( 75.26%)
                                            0.0000 -0.4974 -0.2451 -0.1376  0.8207
                ( 51.54%)  -0.7179* H  27 s(100.00%)
                                           -1.0000
    72. (0.00482) BD*( 1) C  10 - H  28  
                ( 48.27%)   0.6948* C  10 s( 24.40%)p 3.10( 75.60%)
                                            0.0000 -0.4940  0.8064  0.3251 -0.0041
[...]
 NLMO      Total    Paramagnetic  Diamagnetic   Paramagnetic  Diamagnetic
    6      -1.2235       -1.5302       0.3066        -1.2417       0.0182
    9      -0.7431       -0.4315      -0.3115        -1.6196       0.8765
   10      21.3748        4.9231      16.4517        10.8155      10.5592
   11       0.9912        0.2807       0.7105        -0.2375       1.2287
   12      -0.9718       -1.1361       0.1643        -0.9706      -0.0012
   17      -0.2370       -0.5189       0.2819        -1.0627       0.8256
   20      -0.2937       -0.8477       0.5539        -1.2870       0.9932
   22      22.5442        9.6131      12.9311         8.0720      14.4722
   26      -0.4669       -1.4787       1.0118        -1.0626       0.5957
   39     271.1772       -0.0061     271.1833        -0.0026     271.1799
   43      33.0729        1.8065      31.2664        -4.3383      37.4113
   44       4.1947      -34.3907      38.5853       -35.6709      39.8656
 Sum      349.4189      -23.7165     373.1354       -28.6060     378.0249

 Contributions to Isotropic shielding for atom    9 (   212.0971 ppm):
                         Standard Origin              Atomic Origin
 NLMO      Total    Paramagnetic  Diamagnetic   Paramagnetic  Diamagnetic
   10      -0.0146       -0.2258       0.2112        -1.1215       1.1069
   14      -0.1325       -0.4832       0.3507        -1.0217       0.8892
   16       5.4232       -9.8370      15.2602        -2.2226       7.6459
   23      -1.8078       -5.1421       3.3343        -9.3691       7.5613
   24      -0.8487       -6.2494       5.4007        -8.4187       7.5701
   25       4.9596       -1.2372       6.1968        -5.8643      10.8239
   26       0.9647       -0.3455       1.3102        -0.0681       1.0328
   27       0.7055       -0.6284       1.3339        -0.3229       1.0284
   28       0.6234       -0.3108       0.9342        -0.4096       1.0331
   29       0.9173       -0.3026       1.2199        -0.1178       1.0351
   30       0.6421       -0.5519       1.1939        -0.3722       1.0142
   31       0.5885       -0.2266       0.8152        -0.4496       1.0381
   40     199.9254       -0.0023     199.9277         0.0028     199.9226
 Sum      211.9463      -25.5426     237.4889       -29.7553     241.7016

 Contributions to Isotropic shielding for atom   10 (   220.4644 ppm):
                         Standard Origin              Atomic Origin
 NLMO      Total    Paramagnetic  Diamagnetic   Paramagnetic  Diamagnetic
   17      -0.2276       -0.0900      -0.1377        -1.1516       0.9240
   23       4.1769      -11.1673      15.3441        -3.7451       7.9220
   24      -0.4923        0.0242      -0.5165        -1.1896       0.6973
   25       0.2647        0.1667       0.0979        -0.7865       1.0512
   26       5.9962       -4.9095      10.9057        -5.3818      11.3780
   27       5.6607       -4.5437      10.2044        -5.3470      11.0078
   28       4.8019        2.9904       1.8114        -6.2479      11.0498
   41     200.0764       -0.0036     200.0800         0.0021     200.0743
 Sum      220.2568      -17.5326     237.7894       -23.8475     244.1043

 Contributions to Isotropic shielding for atom   11 (   224.1525 ppm):
                         Standard Origin              Atomic Origin
 NLMO      Total    Paramagnetic  Diamagnetic   Paramagnetic  Diamagnetic
   23      -0.4087        0.0420      -0.4507        -1.0941       0.6854
   24       4.2224       -9.4195      13.6419        -3.7077       7.9302
   29       6.6376       -4.8944      11.5320        -4.5882      11.2258
   30       6.8013       -4.7102      11.5115        -4.2822      11.0835
   31       5.9534        3.8823       2.0712        -5.1492      11.1026
   42     200.0735       -0.0026     200.0762         0.0017     200.0719
 Sum      223.2796      -15.1024     238.3820       -18.8198     242.0994

 Contributions to Isotropic shielding for atom   12 (    32.4370 ppm):
                         Standard Origin              Atomic Origin
 NLMO      Total    Paramagnetic  Diamagnetic   Paramagnetic  Diamagnetic
    1       1.4868       -0.7676       2.2543         0.4904       0.9964
    2      26.3284        0.1738      26.1547         0.4312      25.8972
    3       1.8884        2.3324      -0.4440         0.0480       1.8404
    4       1.9276        1.4768       0.4508         0.0870       1.8406
    6      -0.1331        0.6787      -0.8118        -1.0223       0.8892
 Sum       31.4981        3.8941      27.6040         0.0342      31.4639

 Contributions to Isotropic shielding for atom   13 (    32.4552 ppm):
                         Standard Origin              Atomic Origin
 NLMO      Total    Paramagnetic  Diamagnetic   Paramagnetic  Diamagnetic
    1       1.4116       -0.5081       1.9197         0.4129       0.9986
    2       1.9099        2.2714      -0.3615         0.0692       1.8406
    3      26.3475        0.1267      26.2208         0.4435      25.9040
    4       1.9106        1.6896       0.2210         0.0697       1.8409
    5      -0.1661        0.7959      -0.9620        -1.0646       0.8986
 Sum       31.4135        4.3755      27.0380        -0.0692      31.4827

 Contributions to Isotropic shielding for atom   14 (    32.7196 ppm):
                         Standard Origin              Atomic Origin
 NLMO      Total    Paramagnetic  Diamagnetic   Paramagnetic  Diamagnetic
    1       1.6618       -1.3053       2.9671         0.7723       0.8895
    2       1.9585        1.6529       0.3056         0.1324       1.8261
    3       1.9316        1.9369      -0.0053         0.1054       1.8262
    4      26.3506        0.2810      26.0696         0.4350      25.9156
   20      -0.1353        0.1868      -0.3222        -1.0022       0.8668
 Sum       31.7672        2.7524      29.0148         0.4429      31.3243

 Contributions to Isotropic shielding for atom   15 (    32.8126 ppm):
                         Standard Origin              Atomic Origin
 NLMO      Total    Paramagnetic  Diamagnetic   Paramagnetic  Diamagnetic
    1       0.7827        2.2237      -1.4410        -0.1596       0.9424
    2       0.2603       -0.9659       1.2262        -0.6985       0.9588
    3       0.2660       -0.9190       1.1850        -0.6931       0.9592
    5       1.4771        0.4101       1.0670         0.6171       0.8600
    6       1.5568        0.0658       1.4910         0.6905       0.8663
    7      26.4310        0.0690      26.3621         0.3784      26.0526
 Sum       30.7740        0.8837      29.8903         0.1347      30.6392

 Contributions to Isotropic shielding for atom   16 (    31.6359 ppm):
                         Standard Origin              Atomic Origin
 NLMO      Total    Paramagnetic  Diamagnetic   Paramagnetic  Diamagnetic
    8       1.0392       -0.0087       1.0479         0.1273       0.9119
   10       0.9822        0.6476       0.3345        -1.0172       1.9993
   11      26.2818        0.4805      25.8013         0.7100      25.5718
   29      -0.2812       -1.3757       1.0944        -1.0254       0.7442
 Sum       28.0220       -0.2562      28.2781        -1.2053      29.2273

 Contributions to Isotropic shielding for atom   17 (    32.5025 ppm):
                         Standard Origin              Atomic Origin
 NLMO      Total    Paramagnetic  Diamagnetic   Paramagnetic  Diamagnetic
   12       1.3272        0.4896       0.8376         0.3917       0.9355
   13       0.9852        1.3429      -0.3577        -0.0381       1.0233
   14      26.4631        0.0760      26.3871         0.4885      25.9746
   15       2.0625        1.3278       0.7347         0.3156       1.7468
   18       0.2074       -0.3635       0.5708        -0.7963       1.0037
   25      -0.1698       -1.0673       0.8974        -0.8858       0.7160
 Sum       30.8755        1.8055      29.0699        -0.5244      31.3999

 Contributions to Isotropic shielding for atom   18 (    32.6561 ppm):
                         Standard Origin              Atomic Origin
 NLMO      Total    Paramagnetic  Diamagnetic   Paramagnetic  Diamagnetic
   12       1.3856       -0.0079       1.3935         0.4912       0.8944
   13       1.0843        0.8751       0.2093         0.1316       0.9527
   14       1.9804        1.4974       0.4831         0.2394       1.7410
   15      26.4497        0.1722      26.2774         0.4181      26.0315
   24      -0.0007       -0.5718       0.5712        -1.0070       1.0063
   30      -0.3855       -1.3469       0.9614        -0.8092       0.4237
 Sum       30.5139        0.6181      29.8958        -0.5358      31.0496

 Contributions to Isotropic shielding for atom   19 (    33.2592 ppm):
                         Standard Origin              Atomic Origin
 NLMO      Total    Paramagnetic  Diamagnetic   Paramagnetic  Diamagnetic
    8       1.3816        0.6330       0.7486         0.4834       0.8982
   10      -0.0487       -0.1571       0.1084        -1.0689       1.0202
   12       1.1935        0.8065       0.3870         0.2442       0.9493
   16       1.0868        1.2961      -0.2093        -0.0416       1.1284
   17      26.6637        0.0934      26.5704         0.4290      26.2347
   23      -0.0238       -0.7190       0.6952        -1.0221       0.9983
   27      -0.1564       -1.5571       1.4007        -1.0389       0.8825
 Sum       30.0967        0.3958      29.7009        -2.0150      32.1116

 Contributions to Isotropic shielding for atom   20 (    32.8897 ppm):
                         Standard Origin              Atomic Origin
 NLMO      Total    Paramagnetic  Diamagnetic   Paramagnetic  Diamagnetic
    4      -0.0437       -1.2992       1.2555        -0.9384       0.8947
    5       1.2489        0.5918       0.6570         0.4223       0.8265
   13       1.3772        0.0095       1.3677         0.4625       0.9148
   18      26.4878        0.1874      26.3004         0.4390      26.0488
   19       1.9418        1.9870      -0.0451         0.1927       1.7491
 Sum       31.0120        1.4765      29.5355         0.5780      30.4340

 Contributions to Isotropic shielding for atom   21 (    32.4418 ppm):
                         Standard Origin              Atomic Origin
 NLMO      Total    Paramagnetic  Diamagnetic   Paramagnetic  Diamagnetic
    3      -0.0771       -1.4304       1.3533        -0.9606       0.8835
    5       0.9940        1.2140      -0.2200         0.0811       0.9129
   13       1.1974        0.7465       0.4509         0.2038       0.9936
   15       0.1820        0.1575       0.0245        -0.8308       1.0128
   18       1.9826        1.6513       0.3313         0.2344       1.7482
   19      26.4604       -0.0003      26.4606         0.4923      25.9681
 Sum       30.7394        2.3387      28.4007        -0.7797      31.5191

 Contributions to Isotropic shielding for atom   22 (    33.1924 ppm):
                         Standard Origin              Atomic Origin
 NLMO      Total    Paramagnetic  Diamagnetic   Paramagnetic  Diamagnetic
    4      -0.0406       -1.4120       1.3714        -0.9371       0.8965
    6       1.0937        0.8211       0.2726         0.2546       0.8391
    9       1.4499        0.1180       1.3319         0.6415       0.8084
   10      -0.1507        0.0747      -0.2253        -1.3041       1.1534
   20      26.5586        0.1866      26.3720         0.4311      26.1275
   21       1.9886        1.6520       0.3366         0.1529       1.8357
 Sum       30.8996        1.4403      29.4593        -0.7610      31.6606

 Contributions to Isotropic shielding for atom   23 (    31.9812 ppm):
                         Standard Origin              Atomic Origin
 NLMO      Total    Paramagnetic  Diamagnetic   Paramagnetic  Diamagnetic
    2      -0.0844       -1.5216       1.4373        -0.9671       0.8827
    6       0.9200        1.1844      -0.2645        -0.0038       0.9237
    9       1.2323        0.4223       0.8100         0.2974       0.9348
   10      -0.0780        0.1344      -0.2124        -1.4215       1.3435
   11       0.1161       -0.0112       0.1274        -0.9169       1.0331
   20       1.9320        1.4208       0.5112         0.1196       1.8124
   21      26.2643        0.0671      26.1972         0.4694      25.7949
 Sum       30.3023        1.6960      28.6063        -2.4229      32.7251

 Contributions to Isotropic shielding for atom   24 (    35.4705 ppm):
                         Standard Origin              Atomic Origin
 NLMO      Total    Paramagnetic  Diamagnetic   Paramagnetic  Diamagnetic
    9      -0.1029        0.2613      -0.3642        -1.0191       0.9162
   10       2.0167        1.3879       0.6288         1.3862       0.6305
   20      -0.0874       -0.5673       0.4799        -1.0332       0.9459
   22      22.9608       -0.3390      23.2998        -0.1971      23.1579
   43       3.8440        1.5847       2.2593         1.9048       1.9392
   44       5.5839        2.5084       3.0755         2.4438       3.1401
 Sum       34.2152        4.8361      29.3791         3.4854      30.7298

 Contributions to Isotropic shielding for atom   25 (    32.5302 ppm):
                         Standard Origin              Atomic Origin
 NLMO      Total    Paramagnetic  Diamagnetic   Paramagnetic  Diamagnetic
   12      -0.1674        0.3241      -0.4915        -1.2483       1.0809
   14      -0.1249       -0.5242       0.3993        -1.0128       0.8879
   16       1.6870        0.0397       1.6473         0.6598       1.0272
   23       0.8521        2.0451      -1.1930        -0.2102       1.0622
   24       0.9478        1.6836      -0.7358        -0.0943       1.0421
   25      26.5642       -0.1532      26.7173         0.4592      26.1050
   28       0.1891       -0.6542       0.8434        -0.8442       1.0333
 Sum       29.9478        2.7609      27.1869        -2.2908      32.2387

 Contributions to Isotropic shielding for atom   26 (    31.9940 ppm):
                         Standard Origin              Atomic Origin
 NLMO      Total    Paramagnetic  Diamagnetic   Paramagnetic  Diamagnetic
   23       1.5139       -0.9423       2.4562         0.6087       0.9052
   24      -0.1574        0.2482      -0.4055        -1.0982       0.9408
   26      26.0259        0.2957      25.7302         0.4328      25.5932
   27       1.9970        0.6381       1.3589         0.1985       1.7984
   28       1.8744        2.1158      -0.2414         0.0090       1.8654
 Sum       31.2538        2.3554      28.8984         0.1508      31.1031

 Contributions to Isotropic shielding for atom   27 (    32.7283 ppm):
                         Standard Origin              Atomic Origin
 NLMO      Total    Paramagnetic  Diamagnetic   Paramagnetic  Diamagnetic
   16      -0.0584        0.0306      -0.0890        -1.0365       0.9780
   23       1.5951       -0.8169       2.4120         0.6112       0.9838
   26       2.0722        0.6678       1.4043         0.2167       1.8554
   27      26.4859        0.2885      26.1974         0.4106      26.0754
   28       1.9111        2.2109      -0.2998         0.0793       1.8319
 Sum       32.0059        2.3810      29.6249         0.2813      31.7246

 Contributions to Isotropic shielding for atom   28 (    32.4012 ppm):
                         Standard Origin              Atomic Origin
 NLMO      Total    Paramagnetic  Diamagnetic   Paramagnetic  Diamagnetic
   23       1.1932        0.5028       0.6904         0.1678       1.0254
   24      -0.1445        0.7117      -0.8562        -1.0530       0.9084
   26       1.9719        1.7809       0.1910         0.0745       1.8974
   27       1.9286        1.8154       0.1132         0.0866       1.8419
   28      26.4301       -0.0073      26.4374         0.4522      25.9780
 Sum       31.3793        4.8035      26.5758        -0.2718      31.6511

 Contributions to Isotropic shielding for atom   29 (    32.4078 ppm):
                         Standard Origin              Atomic Origin
 NLMO      Total    Paramagnetic  Diamagnetic   Paramagnetic  Diamagnetic
    8      -0.1235        0.0526      -0.1761        -1.0695       0.9460
   10       0.0438       -0.0727       0.1166        -1.2276       1.2714
   23      -0.1217        0.1432      -0.2650        -1.0031       0.8814
   24       1.4954       -0.6663       2.1617         0.5677       0.9277
   29      26.1768        0.2778      25.8990         0.3911      25.7858
   30       2.1100        0.4135       1.6965         0.2940       1.8160
   31       1.9643        2.0677      -0.1034         0.1130       1.8514
 Sum       31.5453        2.2159      29.3293        -1.9344      33.4797

 Contributions to Isotropic shielding for atom   30 (    32.5767 ppm):
                         Standard Origin              Atomic Origin
 NLMO      Total    Paramagnetic  Diamagnetic   Paramagnetic  Diamagnetic
   12      -0.0614        0.0779      -0.1392        -1.0128       0.9514
   24       1.4951       -0.7213       2.2164         0.4932       1.0019
   29       2.1098        0.3973       1.7125         0.2679       1.8418
   30      26.3611        0.2750      26.0861         0.3713      25.9898
   31       1.9512        2.0262      -0.0750         0.0912       1.8600
 Sum       31.8558        2.0550      29.8008         0.2108      31.6450

 Contributions to Isotropic shielding for atom   31 (    32.4822 ppm):
                         Standard Origin              Atomic Origin
 NLMO      Total    Paramagnetic  Diamagnetic   Paramagnetic  Diamagnetic
   23      -0.1414        0.6097      -0.7511        -1.1088       0.9674
   24       1.1596        0.8822       0.2774         0.1365       1.0231
   29       2.0106        1.6621       0.3485         0.1366       1.8739
   30       2.0281        1.6546       0.3734         0.1693       1.8587
   31      26.3061       -0.0453      26.3513         0.4004      25.9057
 Sum       31.3630        4.7633      26.5996        -0.2659      31.6289
 
 1\1\GINC-COMPUTE-6-4\SP\RHF\STO-3G\C10H20O1\YTSAI.IQUIR\03-Aug-2021\0\
 \# rhf/STO-3G nmr pop=nbo\\comment\\0,1\C,0,0.809875025,0.390965723,-3
 .605404772\C,0,0.115700835,0.281497315,-2.249260297\C,0,-0.039513211,-
 1.068729788,-0.102263966\C,0,-0.307375305,1.441504116,-0.042155723\C,0
 ,0.182415103,0.206079565,0.741859363\C,0,0.347292953,1.547026298,-1.41
 8216787\C,0,0.603454699,-0.953853167,-1.48883641\O,0,0.508832214,-2.21
 4691412,0.539137925\C,0,-0.446761894,0.183830491,2.168813568\C,0,0.327
 339613,-0.708798845,3.144918553\C,0,-1.929656355,-0.196214518,2.193075
 167\H,0,0.621066229,-0.50157813,-4.211153365\H,0,0.439359692,1.2581640
 53,-4.16208783\H,0,1.893786052,0.499743415,-3.491314685\H,0,-0.9623070
 79,0.175484364,-2.429639288\H,0,-1.111765909,-1.252232829,-0.232700202
 \H,0,-0.086022924,2.354071541,0.524253116\H,0,-1.395203281,1.404115288
 ,-0.172404017\H,0,1.266705017,0.324900733,0.884268837\H,0,1.423266073,
 1.724688012,-1.294518588\H,0,-0.059459077,2.418890135,-1.944501331\H,0
 ,1.696793096,-0.928130125,-1.384357689\H,0,0.386663277,-1.863352277,-2
 .063867956\H,0,1.458894943,-2.056179201,0.672988724\H,0,-0.369012127,1
 .204218874,2.569372913\H,0,0.176164019,-1.772675933,2.942982632\H,0,1.
 400647131,-0.496532793,3.107486433\H,0,-0.008403493,-0.525790896,4.171
 979923\H,0,-2.087033148,-1.235190315,1.886661094\H,0,-2.522478771,0.44
 8739861,1.538587997\H,0,-2.333263395,-0.089969555,3.206296661\\Version
 =EM64L-G09RevC.01\State=1-A\HF=-459.622752\RMSD=7.906e-09\Dipole=0.250
 9237,0.4825184,-0.1623024\Quadrupole=2.4804781,-2.5745141,0.094036,-0.
 7949148,0.6771291,0.9809976\PG=C01 [X(C10H20O1)]\\@


 BE LIKE A POSTAGE STAMP.  STICK TO ONE THING UNTIL
 YOU GET THERE -- JOSH BILLINGS
 Job cpu time:  0 days  0 hours  0 minutes 48.6 seconds.
 File lengths (MBytes):  RWF=      5 Int=      0 D2E=      0 Chk=      1 Scr=      1
 Normal termination of Gaussian 09 at Tue Aug  3 16:32:28 2021.
