 Entering Gaussian System, Link 0=g09
 Input=/home/ytsai.iquir/menthol/01_menthol_M0007_MMFF_NMR_rhf_STO-3G_nbo.gjc
 Output=/home/ytsai.iquir/menthol/01_menthol_M0007_MMFF_NMR_rhf_STO-3G_nbo.log
 Initial command:
 /share/apps/Gaussian09/EM64T.SSE4.2-enabled/g09/l1.exe /tmp/Gau-133933.inp -scrdir=/tmp/
 Entering Link 1 = /share/apps/Gaussian09/EM64T.SSE4.2-enabled/g09/l1.exe PID=    133934.
  
 Copyright (c) 1988,1990,1992,1993,1995,1998,2003,2009,2011,
            Gaussian, Inc.  All Rights Reserved.
  
 This is part of the Gaussian(R) 09 program.  It is based on
 the Gaussian(R) 03 system (copyright 2003, Gaussian, Inc.),
 the Gaussian(R) 98 system (copyright 1998, Gaussian, Inc.),
 the Gaussian(R) 94 system (copyright 1995, Gaussian, Inc.),
 the Gaussian 92(TM) system (copyright 1992, Gaussian, Inc.),
 the Gaussian 90(TM) system (copyright 1990, Gaussian, Inc.),
 the Gaussian 88(TM) system (copyright 1988, Gaussian, Inc.),
 the Gaussian 86(TM) system (copyright 1986, Carnegie Mellon
 University), and the Gaussian 82(TM) system (copyright 1983,
 Carnegie Mellon University). Gaussian is a federally registered
 trademark of Gaussian, Inc.
  
 This software contains proprietary and confidential information,
 including trade secrets, belonging to Gaussian, Inc.
  
 This software is provided under written license and may be
 used, copied, transmitted, or stored only in accord with that
 written license.
  
 The following legend is applicable only to US Government
 contracts under FAR:
  
                    RESTRICTED RIGHTS LEGEND
  
 Use, reproduction and disclosure by the US Government is
 subject to restrictions as set forth in subparagraphs (a)
 and (c) of the Commercial Computer Software - Restricted
 Rights clause in FAR 52.227-19.
  
 Gaussian, Inc.
 340 Quinnipiac St., Bldg. 40, Wallingford CT 06492
  
  
 ---------------------------------------------------------------
 Warning -- This program may not be used in any manner that
 competes with the business of Gaussian, Inc. or will provide
 assistance to any competitor of Gaussian, Inc.  The licensee
 of this program is prohibited from giving any competitor of
 Gaussian, Inc. access to this program.  By using this program,
 the user acknowledges that Gaussian, Inc. is engaged in the
 business of creating and licensing software in the field of
 computational chemistry and represents and warrants to the
 licensee that it is not a competitor of Gaussian, Inc. and that
 it will not use this program in any manner prohibited above.
 ---------------------------------------------------------------
  

 Cite this work as:
 Gaussian 09, Revision C.01,
 M. J. Frisch, G. W. Trucks, H. B. Schlegel, G. E. Scuseria, 
 M. A. Robb, J. R. Cheeseman, G. Scalmani, V. Barone, B. Mennucci, 
 G. A. Petersson, H. Nakatsuji, M. Caricato, X. Li, H. P. Hratchian, 
 A. F. Izmaylov, J. Bloino, G. Zheng, J. L. Sonnenberg, M. Hada, 
 M. Ehara, K. Toyota, R. Fukuda, J. Hasegawa, M. Ishida, T. Nakajima, 
 Y. Honda, O. Kitao, H. Nakai, T. Vreven, J. A. Montgomery, Jr., 
 J. E. Peralta, F. Ogliaro, M. Bearpark, J. J. Heyd, E. Brothers, 
 K. N. Kudin, V. N. Staroverov, T. Keith, R. Kobayashi, J. Normand, 
 K. Raghavachari, A. Rendell, J. C. Burant, S. S. Iyengar, J. Tomasi, 
 M. Cossi, N. Rega, J. M. Millam, M. Klene, J. E. Knox, J. B. Cross, 
 V. Bakken, C. Adamo, J. Jaramillo, R. Gomperts, R. E. Stratmann, 
 O. Yazyev, A. J. Austin, R. Cammi, C. Pomelli, J. W. Ochterski, 
 R. L. Martin, K. Morokuma, V. G. Zakrzewski, G. A. Voth, 
 P. Salvador, J. J. Dannenberg, S. Dapprich, A. D. Daniels, 
 O. Farkas, J. B. Foresman, J. V. Ortiz, J. Cioslowski, 
 and D. J. Fox, Gaussian, Inc., Wallingford CT, 2010.
 
 ******************************************
 Gaussian 09:  EM64L-G09RevC.01 23-Sep-2011
                 3-Aug-2021 
 ******************************************
 %nprocshared=4
 Will use up to    4 processors via shared memory.
 ------------------------
 # rhf/STO-3G nmr pop=nbo
 ------------------------
 1/38=1/1;
 2/12=2,17=6,18=5,40=1/2;
 3/6=3,11=1,16=1,25=1,30=1,116=1/1,2,8,3;
 4//1;
 5/5=2,38=5/2;
 8/6=1,10=90,11=11/1;
 10/13=100,45=16/2;
 6/7=2,8=2,9=2,10=2,28=1,64=1/1,7;
 99/9=1/99;
 -------
 comment
 -------
 Charge =  0 Multiplicity = 1
 Symbolic Z-Matrix:
 6                    -1.29883  -1.70389  -3.04968 
 6                    -1.05508  -1.14871  -1.64778 
 6                     0.51104  -1.17134   0.34641 
 6                    -0.681     0.9607   -0.293 
 6                     0.60451   0.37192   0.31934 
 6                    -0.97417   0.38054  -1.67704 
 6                     0.22083  -1.74078  -1.04458 
 8                     1.73744  -1.74406   0.79185 
 6                     0.97212   0.98929   1.70289 
 6                    -0.05425   0.71103   2.80421 
 6                     1.2229    2.4992    1.60744 
 1                    -0.47971  -1.4453   -3.72931 
 1                    -1.38656  -2.79518  -3.02503 
 1                    -2.227    -1.30261  -3.47001 
 1                    -1.90549  -1.43999  -1.01702 
 1                    -0.28206  -1.50234   1.02667 
 1                    -0.59796   2.04809  -0.39119 
 1                    -1.53811   0.76173   0.36089 
 1                     1.43859   0.62858  -0.3512 
 1                    -0.19029   0.70141  -2.37517 
 1                    -1.91824   0.7968   -2.0487 
 1                     1.07916  -1.55267  -1.70399 
 1                     0.13731  -2.83328  -0.97831 
 1                     1.79855  -1.6027    1.7514 
 1                     1.92279   0.54477   2.02431 
 1                    -1.02899   1.15117   2.573 
 1                    -0.19026  -0.36188   2.96604 
 1                     0.2815    1.13899   3.75553 
 1                     0.29954   3.0567    1.4221 
 1                     1.93249   2.72863   0.80579 
 1                     1.64924   2.87519   2.54414 
 
                          Input orientation:                          
 ---------------------------------------------------------------------
 Center     Atomic      Atomic             Coordinates (Angstroms)
 Number     Number       Type             X           Y           Z
 ---------------------------------------------------------------------
      1          6           0       -1.298829   -1.703888   -3.049679
      2          6           0       -1.055082   -1.148705   -1.647778
      3          6           0        0.511039   -1.171345    0.346410
      4          6           0       -0.681002    0.960702   -0.293004
      5          6           0        0.604513    0.371923    0.319341
      6          6           0       -0.974166    0.380537   -1.677036
      7          6           0        0.220827   -1.740780   -1.044578
      8          8           0        1.737442   -1.744057    0.791849
      9          6           0        0.972122    0.989285    1.702890
     10          6           0       -0.054255    0.711026    2.804212
     11          6           0        1.222899    2.499197    1.607436
     12          1           0       -0.479714   -1.445302   -3.729307
     13          1           0       -1.386561   -2.795178   -3.025034
     14          1           0       -2.227002   -1.302609   -3.470012
     15          1           0       -1.905487   -1.439990   -1.017017
     16          1           0       -0.282056   -1.502344    1.026675
     17          1           0       -0.597964    2.048085   -0.391185
     18          1           0       -1.538109    0.761732    0.360887
     19          1           0        1.438595    0.628576   -0.351202
     20          1           0       -0.190288    0.701408   -2.375168
     21          1           0       -1.918243    0.796797   -2.048704
     22          1           0        1.079158   -1.552667   -1.703994
     23          1           0        0.137308   -2.833277   -0.978314
     24          1           0        1.798546   -1.602702    1.751397
     25          1           0        1.922790    0.544769    2.024306
     26          1           0       -1.028993    1.151170    2.573001
     27          1           0       -0.190258   -0.361879    2.966037
     28          1           0        0.281503    1.138991    3.755530
     29          1           0        0.299537    3.056699    1.422105
     30          1           0        1.932486    2.728633    0.805791
     31          1           0        1.649244    2.875192    2.544145
 ---------------------------------------------------------------------
                    Distance matrix (angstroms):
                    1          2          3          4          5
     1  C    0.000000
     2  C    1.527405   0.000000
     3  C    3.884925   2.535751   0.000000
     4  C    3.883427   2.534748   2.524962   0.000000
     5  C    4.391127   2.989335   1.546333   1.540836   0.000000
     6  C    2.516821   1.531661   2.951017   1.529078   2.545156
     7  C    2.516176   1.530472   1.530793   2.945533   2.543817
     8  O    4.896722   3.755584   1.424949   3.787017   2.446255
     9  C    5.915852   4.461786   2.592481   2.591762   1.559000
    10  C    6.453589   4.927522   3.147009   3.169842   2.592981
    11  C    6.761195   5.393775   3.945860   3.098948   2.562594
    12  H    1.095313   2.179858   4.203345   4.199709   4.568304
    13  H    1.095087   2.172000   4.195754   4.697705   5.017942
    14  H    1.095084   2.172008   4.698848   4.195959   5.018040
    15  H    2.137614   1.098133   2.787598   2.790499   3.371792
    16  H    4.206080   2.806301   1.096048   2.822642   2.190708
    17  H    4.651463   3.465177   3.484058   1.094959   2.181815
    18  H    4.215270   2.813862   2.817091   1.096264   2.178188
    19  H    4.496182   3.325397   2.141667   2.146249   1.100541
    20  H    2.732998   2.167922   3.377284   2.154864   2.828541
    21  H    2.763884   2.165818   3.938472   2.154092   3.486036
    22  H    2.736523   2.172861   2.161556   3.377289   2.832528
    23  H    2.761985   2.169737   2.157912   3.941263   3.489340
    24  H    5.714394   4.461356   1.953902   4.110812   2.715814
    25  H    6.417212   5.021929   2.784497   3.510364   2.162090
    26  H    6.311791   4.806775   3.566999   2.893331   2.890424
    27  H    6.262488   4.759654   2.830106   3.551254   2.859218
    28  H    7.542565   6.017952   4.124614   4.165193   3.535552
    29  H    6.724196   5.380018   4.367860   2.880323   2.918410
    30  H    6.704722   5.475337   4.176287   3.341145   2.748496
    31  H    7.807046   6.409161   4.743417   4.140620   3.508215
                    6          7          8          9         10
     6  C    0.000000
     7  C    2.515551   0.000000
     8  O    4.238173   2.381722   0.000000
     9  C    3.947468   3.945413   2.981085   0.000000
    10  C    4.586615   4.571675   3.645163   1.530943   0.000000
    11  C    4.483701   5.100464   4.351453   1.533569   2.502189
    12  H    2.791056   2.790311   5.044392   6.127300   6.893304
    13  H    3.474527   2.760010   5.043099   6.499139   6.931711
    14  H    2.759954   3.473699   5.837392   6.499699   6.938403
    15  H    2.148791   2.147661   4.078650   4.645418   4.759803
    16  H    3.366647   2.144722   2.047423   2.870269   2.847901
    17  H    2.139078   3.931010   4.608040   2.823363   3.506267
    18  H    2.148597   3.366267   4.146558   2.855523   2.859061
    19  H    2.764195   2.752740   2.650521   2.137054   3.491709
    20  H    1.097639   2.811364   4.441445   4.250249   5.181174
    21  H    1.096672   3.467447   5.280976   4.739801   5.199288
    22  H    2.820309   1.098612   2.588282   4.252039   5.170382
    23  H    3.471626   1.097686   2.623033   4.743179   5.187126
    24  H    4.834803   3.213369   0.971827   2.720979   3.145573
    25  H    4.703111   4.187895   2.606152   1.097576   2.131807
    26  H    4.319687   4.797115   4.382694   2.188095   1.094212
    27  H    4.766951   4.260915   3.217691   2.184563   1.093531
    28  H    5.627142   5.598018   4.383506   2.170875   1.095853
    29  H    4.288220   5.395047   5.050945   2.192124   2.745463
    30  H    4.486269   5.131209   4.476963   2.180004   3.465770
    31  H    5.560930   6.018846   4.941232   2.173211   2.766433
                   11         12         13         14         15
    11  C    0.000000
    12  H    6.851189   0.000000
    13  H    7.503297   1.772155   0.000000
    14  H    7.220528   1.772177   1.769776   0.000000
    15  H    5.673778   3.064209   2.477489   2.477787   0.000000
    16  H    4.314453   4.760429   4.394052   4.903356   2.610765
    17  H    2.741083   4.833301   5.569222   4.833228   3.777294
    18  H    3.492253   4.766643   4.913149   4.405890   2.623198
    19  H    2.716985   4.403689   5.181985   5.185851   3.988128
    20  H    4.592415   2.554570   3.752267   3.059898   3.061384
    21  H    5.111976   3.149730   3.760078   2.554008   2.463282
    22  H    5.234867   2.558027   3.060841   3.756599   3.064758
    23  H    6.024939   3.142476   2.551998   3.760514   2.473006
    24  H    4.144595   5.937454   5.863548   6.599864   4.627143
    25  H    2.117408   6.544957   6.899484   7.128892   5.276800
    26  H    2.796518   6.838309   6.858536   6.631309   4.513378
    27  H    3.468222   6.788610   6.576095   6.815866   4.468675
    28  H    2.711216   7.954924   8.014747   8.028852   5.849041
    29  H    1.094420   6.885658   7.540851   7.022804   5.570607
    30  H    1.094892   6.618728   7.496918   7.199635   5.952318
    31  H    1.095703   7.909193   8.507935   8.285492   6.628634
                   16         17         18         19         20
    16  H    0.000000
    17  H    3.836101   0.000000
    18  H    2.673385   1.761870   0.000000
    19  H    3.065943   2.482776   3.063586   0.000000
    20  H    4.054316   2.432268   3.050615   2.599038   0.000000
    21  H    4.173861   2.460940   2.439643   3.765391   1.761109
    22  H    3.051555   4.183494   4.058357   2.591730   2.672605
    23  H    2.442791   4.971221   4.186236   3.751139   3.814776
    24  H    2.205493   4.864377   4.319413   3.086922   5.127662
    25  H    3.169745   3.801152   3.846018   2.425800   4.883134
    26  H    3.160724   3.126763   2.303109   3.861742   5.038858
    27  H    2.251714   4.152722   3.141021   3.825995   5.446012
    28  H    3.839388   4.335339   3.870002   4.297049   6.164375
    29  H    4.612970   2.260715   3.125699   3.215252   4.495175
    30  H    4.780602   2.880812   4.013934   2.448020   4.328315
    31  H    5.019507   3.788168   4.403696   3.670788   5.684087
                   21         22         23         24         25
    21  H    0.000000
    22  H    3.824031   0.000000
    23  H    4.306792   1.747471   0.000000
    24  H    5.832056   3.529837   3.424229   0.000000
    25  H    5.604146   4.360180   4.859512   2.168305   0.000000
    26  H    4.719799   5.481580   5.463324   4.031603   3.062974
    27  H    5.429189   4.983832   4.666156   2.640139   2.484721
    28  H    6.216519   6.139029   6.181341   3.719523   2.458467
    29  H    4.698108   5.623749   6.362401   4.905658   3.050801
    30  H    5.168002   5.035546   6.110691   4.435378   2.500827
    31  H    6.175836   6.162598   6.876065   4.549975   2.403316
                   26         27         28         29         30
    26  H    0.000000
    27  H    1.774055   0.000000
    28  H    1.765198   1.760247   0.000000
    29  H    2.592411   3.782896   3.020397   0.000000
    30  H    3.792332   4.327121   3.735461   1.775948   0.000000
    31  H    3.185284   3.747050   2.520428   1.764547   1.767365
                   31
    31  H    0.000000
 Stoichiometry    C10H20O
 Framework group  C1[X(C10H20O)]
 Deg. of freedom    87
 Full point group                 C1      NOp   1
 Largest Abelian subgroup         C1      NOp   1
 Largest concise Abelian subgroup C1      NOp   1
                         Standard orientation:                         
 ---------------------------------------------------------------------
 Center     Atomic      Atomic             Coordinates (Angstroms)
 Number     Number       Type             X           Y           Z
 ---------------------------------------------------------------------
      1          6           0        3.699874   -0.356699    0.028764
      2          6           0        2.219337   -0.248778    0.388389
      3          6           0        0.121378    1.152109    0.131261
      4          6           0       -0.046609   -1.366655    0.186434
      5          6           0       -0.662496   -0.075921   -0.387034
      6          6           0        1.448375   -1.472011   -0.116887
      7          6           0        1.615574    1.037159   -0.180980
      8          8           0       -0.349630    2.348334   -0.483293
      9          6           0       -2.200179    0.034345   -0.154977
     10          6           0       -2.605255    0.123014    1.318739
     11          6           0       -2.964158   -1.113059   -0.827015
     12          1           0        3.845329   -0.393923   -1.056210
     13          1           0        4.256863    0.503103    0.415700
     14          1           0        4.139085   -1.262180    0.460513
     15          1           0        2.139666   -0.215263    1.483115
     16          1           0        0.003242    1.261265    1.215442
     17          1           0       -0.541251   -2.248910   -0.232962
     18          1           0       -0.188945   -1.404587    1.272756
     19          1           0       -0.528249   -0.101526   -1.479056
     20          1           0        1.588916   -1.582958   -1.199823
     21          1           0        1.846335   -2.381860    0.348401
     22          1           0        1.767380    1.082808   -1.268095
     23          1           0        2.138481    1.913211    0.224008
     24          1           0       -1.208507    2.567204   -0.084705
     25          1           0       -2.545899    0.954485   -0.643335
     26          1           0       -2.321633   -0.776315    1.873777
     27          1           0       -2.151447    0.988394    1.809643
     28          1           0       -3.691510    0.235599    1.409673
     29          1           0       -2.793022   -2.069384   -0.323121
     30          1           0       -2.670512   -1.217528   -1.876609
     31          1           0       -4.042328   -0.919324   -0.802936
 ---------------------------------------------------------------------
 Rotational constants (GHZ):      1.7655802      0.6935011      0.5694116
 Standard basis: STO-3G (5D, 7F)
 There are    75 symmetry adapted basis functions of A   symmetry.
 Integral buffers will be    131072 words long.
 Raffenetti 1 integral format.
 Two-electron integral symmetry is turned on.
    75 basis functions,   225 primitive gaussians,    75 cartesian basis functions
    44 alpha electrons       44 beta electrons
       nuclear repulsion energy       688.9098226908 Hartrees.
 NAtoms=   31 NActive=   31 NUniq=   31 SFac= 1.00D+00 NAtFMM=   60 NAOKFM=F Big=F
 One-electron integrals computed using PRISM.
 NBasis=    75 RedAO= T  NBF=    75
 NBsUse=    75 1.00D-06 NBFU=    75
 Harris functional with IExCor=  205 diagonalized for initial guess.
 ExpMin= 1.69D-01 ExpMax= 1.31D+02 ExpMxC= 1.31D+02 IAcc=1 IRadAn=         1 AccDes= 0.00D+00
 HarFok:  IExCor=  205 AccDes= 0.00D+00 IRadAn=         1 IDoV= 1
 ScaDFX=  1.000000  1.000000  1.000000  1.000000
 FoFCou: FMM=F IPFlag=           0 FMFlag=      100000 FMFlg1=           0
         NFxFlg=           0 DoJE=T BraDBF=F KetDBF=T FulRan=T
         Omega=  0.000000  0.000000  1.000000  0.000000  0.000000 ICntrl=     500 IOpCl=  0
         NMat0=    1 NMatS0=    1 NMatT0=    0 NMatD0=    1 NMtDS0=    0 NMtDT0=    0
         I1Cent=           4 NGrid=           0.
 Petite list used in FoFCou.
 Initial guess orbital symmetries:
       Occupied  (A) (A) (A) (A) (A) (A) (A) (A) (A) (A) (A) (A)
                 (A) (A) (A) (A) (A) (A) (A) (A) (A) (A) (A) (A)
                 (A) (A) (A) (A) (A) (A) (A) (A) (A) (A) (A) (A)
                 (A) (A) (A) (A) (A) (A) (A) (A)
       Virtual   (A) (A) (A) (A) (A) (A) (A) (A) (A) (A) (A) (A)
                 (A) (A) (A) (A) (A) (A) (A) (A) (A) (A) (A) (A)
                 (A) (A) (A) (A) (A) (A) (A)
 The electronic state of the initial guess is 1-A.
 Requested convergence on RMS density matrix=1.00D-08 within 128 cycles.
 Requested convergence on MAX density matrix=1.00D-06.
 Requested convergence on             energy=1.00D-06.
 No special actions if energy rises.
 Keep R1 ints in memory in canonical form, NReq=4898789.
 SCF Done:  E(RHF) =  -459.622630019     A.U. after   10 cycles
             Convg  =    0.8735D-08             -V/T =  2.0090
 Range of M.O.s used for correlation:     1    75
 NBasis=    75 NAE=    44 NBE=    44 NFC=     0 NFV=     0
 NROrb=     75 NOA=    44 NOB=    44 NVA=    31 NVB=    31
          Differentiating once with respect to magnetic field using GIAOs.
          Electric field/nuclear overlap derivatives assumed to be zero.
          Keep R3 ints in memory in canonical form, NReq=4863575.
 FoFCou: FMM=F IPFlag=           0 FMFlag=           0 FMFlg1=           0
         NFxFlg=           0 DoJE=F BraDBF=F KetDBF=T FulRan=T
         Omega=  0.000000  0.000000  1.000000  0.000000  0.000000 ICntrl=    6100 IOpCl=  0
         NMat0=    1 NMatS0=    1 NMatT0=    0 NMatD0=    1 NMtDS0=    0 NMtDT0=    0
         I1Cent=           7 NGrid=          31.
 Symmetry not used in FoFCou.
          There are     3 degrees of freedom in the 1st order CPHF.  IDoFFX=0.
      3 vectors produced by pass  0 Test12= 4.55D-14 3.33D-08 XBig12= 7.83D+00 4.64D-01.
 AX will form     3 AO Fock derivatives at one time.
      3 vectors produced by pass  1 Test12= 4.55D-14 3.33D-08 XBig12= 1.18D-02 1.32D-02.
      3 vectors produced by pass  2 Test12= 4.55D-14 3.33D-08 XBig12= 8.26D-05 2.62D-03.
      3 vectors produced by pass  3 Test12= 4.55D-14 3.33D-08 XBig12= 1.63D-06 3.60D-04.
      3 vectors produced by pass  4 Test12= 4.55D-14 3.33D-08 XBig12= 1.88D-08 2.63D-05.
      3 vectors produced by pass  5 Test12= 4.55D-14 3.33D-08 XBig12= 2.60D-10 3.23D-06.
      3 vectors produced by pass  6 Test12= 4.55D-14 3.33D-08 XBig12= 2.62D-12 3.09D-07.
 Inverted reduced A of dimension    21 with in-core refinement.
 Calculating GIAO nuclear magnetic shielding tensors.
 SCF GIAO Magnetic shielding tensor (ppm):
      1  C    Isotropic =   221.1352   Anisotropy =    28.4257
   XX=   239.5264   YX=    -1.8529   ZX=    -1.7858
   XY=    -2.0245   YY=   212.5471   ZY=     0.0718
   XZ=    -5.1566   YZ=     0.3657   ZZ=   211.3322
   Eigenvalues:   210.9110   212.4091   240.0857
      2  C    Isotropic =   215.1149   Anisotropy =     8.0161
   XX=   220.3409   YX=     0.2417   ZX=     1.2103
   XY=     0.9785   YY=   216.6150   ZY=    -0.3313
   XZ=    -0.1575   YZ=     0.0768   ZZ=   208.3888
   Eigenvalues:   208.3628   216.5229   220.4590
      3  C    Isotropic =   188.2057   Anisotropy =    41.0791
   XX=   186.6519   YX=   -10.9448   ZX=     7.0573
   XY=    -9.8874   YY=   203.2914   ZY=   -13.7152
   XZ=     9.0427   YZ=   -16.8635   ZZ=   174.6738
   Eigenvalues:   167.3631   181.6622   215.5918
      4  C    Isotropic =   219.0906   Anisotropy =    13.9055
   XX=   227.0250   YX=    -2.9139   ZX=    -0.6735
   XY=    -3.6333   YY=   219.7214   ZY=    -4.6669
   XZ=    -0.0444   YZ=    -3.7115   ZZ=   210.5254
   Eigenvalues:   208.7723   220.1387   228.3609
      5  C    Isotropic =   208.8565   Anisotropy =    14.1127
   XX=   216.7961   YX=     6.7551   ZX=    -3.0523
   XY=    -0.4948   YY=   207.8406   ZY=     0.9233
   XZ=    -3.7769   YZ=     2.4040   ZZ=   201.9327
   Eigenvalues:   200.4320   207.8725   218.2650
      6  C    Isotropic =   215.5792   Anisotropy =    17.3162
   XX=   223.9054   YX=     4.2859   ZX=    -1.1938
   XY=     7.4745   YY=   215.6989   ZY=     4.1525
   XZ=     1.7345   YZ=     2.2255   ZZ=   207.1334
   Eigenvalues:   205.9077   213.7066   227.1234
      7  C    Isotropic =   214.9835   Anisotropy =    21.2849
   XX=   224.0095   YX=    -7.4482   ZX=    -1.2707
   XY=    -8.8986   YY=   215.6522   ZY=    -4.8616
   XZ=     1.0584   YZ=    -2.9449   ZZ=   205.2887
   Eigenvalues:   203.5309   212.2462   229.1734
      8  O    Isotropic =   365.5023   Anisotropy =    69.4114
   XX=   398.0885   YX=   -17.0993   ZX=   -17.5226
   XY=     3.5426   YY=   334.4376   ZY=     8.1760
   XZ=   -31.1651   YZ=     4.2106   ZZ=   363.9808
   Eigenvalues:   333.1166   351.6138   411.7766
      9  C    Isotropic =   215.5395   Anisotropy =    12.4321
   XX=   223.6193   YX=     0.8240   ZX=    -0.6429
   XY=     1.3655   YY=   208.7151   ZY=     4.3668
   XZ=    -2.1000   YZ=     5.6909   ZZ=   214.2840
   Eigenvalues:   205.6018   217.1891   223.8275
     10  C    Isotropic =   224.8235   Anisotropy =    20.3687
   XX=   221.0852   YX=    -0.8976   ZX=    -5.9686
   XY=     0.1250   YY=   216.9987   ZY=     2.1091
   XZ=    -3.9871   YZ=     4.7457   ZZ=   236.3865
   Eigenvalues:   216.3506   219.7173   238.4026
     11  C    Isotropic =   221.4461   Anisotropy =    26.1390
   XX=   221.4100   YX=     9.1484   ZX=     6.5946
   XY=    10.1980   YY=   221.9259   ZY=    12.5635
   XZ=     3.6887   YZ=     9.2736   ZZ=   221.0023
   Eigenvalues:   209.3144   216.1518   238.8720
     12  H    Isotropic =    32.5937   Anisotropy =    11.7023
   XX=    33.7327   YX=    -0.5713   ZX=    -4.8215
   XY=    -0.6594   YY=    27.1782   ZY=     0.5798
   XZ=    -4.7640   YZ=     0.5528   ZZ=    36.8702
   Eigenvalues:    27.1187    30.2672    40.3952
     13  H    Isotropic =    32.3868   Anisotropy =    13.8219
   XX=    37.3266   YX=     5.3805   ZX=     2.6678
   XY=     5.0298   YY=    32.6430   ZY=     2.6892
   XZ=     2.5738   YZ=     2.5129   ZZ=    27.1907
   Eigenvalues:    26.1123    29.4466    41.6014
     14  H    Isotropic =    32.4382   Anisotropy =    13.8384
   XX=    35.8785   YX=    -5.6487   ZX=     2.5491
   XY=    -5.4907   YY=    33.8543   ZY=    -3.3199
   XZ=     2.4461   YZ=    -3.1536   ZZ=    27.5817
   Eigenvalues:    26.2080    29.4427    41.6638
     15  H    Isotropic =    32.8660   Anisotropy =    10.6895
   XX=    31.6312   YX=    -0.2028   ZX=     1.3148
   XY=    -0.5165   YY=    27.2223   ZY=     0.1557
   XZ=     1.5576   YZ=     0.2177   ZZ=    39.7444
   Eigenvalues:    27.1856    31.4200    39.9923
     16  H    Isotropic =    32.2054   Anisotropy =     6.8284
   XX=    31.8535   YX=     0.1924   ZX=    -1.2880
   XY=    -0.5532   YY=    29.3241   ZY=     2.0863
   XZ=    -1.1018   YZ=     3.3522   ZZ=    35.4385
   Eigenvalues:    28.2705    31.5879    36.7577
     17  H    Isotropic =    32.4834   Anisotropy =    12.5530
   XX=    34.6120   YX=     3.2991   ZX=     2.0941
   XY=     3.3173   YY=    37.9366   ZY=     3.1033
   XZ=     2.0730   YZ=     3.1067   ZZ=    24.9016
   Eigenvalues:    24.0240    32.5741    40.8521
     18  H    Isotropic =    32.9697   Anisotropy =     9.8184
   XX=    32.7783   YX=    -1.1259   ZX=    -2.5811
   XY=    -0.9174   YY=    28.8864   ZY=    -3.8910
   XZ=    -2.5714   YZ=    -4.2298   ZZ=    37.2444
   Eigenvalues:    26.6106    32.7832    39.5153
     19  H    Isotropic =    32.4244   Anisotropy =     9.0398
   XX=    31.9363   YX=     0.5538   ZX=    -0.4832
   XY=     0.5290   YY=    26.9240   ZY=     0.7062
   XZ=    -0.2835   YZ=     0.2004   ZZ=    38.4129
   Eigenvalues:    26.8452    31.9770    38.4509
     20  H    Isotropic =    32.7578   Anisotropy =    11.0733
   XX=    31.7359   YX=    -0.6107   ZX=    -2.5465
   XY=    -0.8101   YY=    29.5958   ZY=     4.8247
   XZ=    -2.4076   YZ=     4.9302   ZZ=    36.9418
   Eigenvalues:    27.1092    31.0243    40.1400
     21  H    Isotropic =    32.4402   Anisotropy =    13.9127
   XX=    32.2992   YX=    -3.7893   ZX=     1.4686
   XY=    -3.9556   YY=    38.8495   ZY=    -3.5758
   XZ=     1.6319   YZ=    -3.9733   ZZ=    26.1718
   Eigenvalues:    25.0970    30.5082    41.7153
     22  H    Isotropic =    32.3615   Anisotropy =    10.5213
   XX=    31.7400   YX=    -0.2119   ZX=    -3.3871
   XY=    -0.4087   YY=    28.7422   ZY=    -3.6701
   XZ=    -3.3602   YZ=    -3.9864   ZZ=    36.6023
   Eigenvalues:    26.6252    31.0835    39.3757
     23  H    Isotropic =    31.9355   Anisotropy =    13.3390
   XX=    33.6123   YX=     4.4592   ZX=     1.7959
   XY=     4.2378   YY=    37.1964   ZY=     2.6117
   XZ=     2.1695   YZ=     2.8617   ZZ=    24.9978
   Eigenvalues:    24.2750    30.7033    40.8281
     24  H    Isotropic =    34.5185   Anisotropy =    16.8265
   XX=    40.2384   YX=    -6.9289   ZX=    -4.7580
   XY=    -5.4568   YY=    36.9075   ZY=    -1.5964
   XZ=    -5.6720   YZ=     0.1716   ZZ=    26.4097
   Eigenvalues:    24.0346    33.7848    45.7362
     25  H    Isotropic =    32.5863   Anisotropy =    11.4505
   XX=    32.5406   YX=    -2.5186   ZX=     3.1703
   XY=    -2.7494   YY=    36.4285   ZY=    -4.4612
   XZ=     2.6309   YZ=    -4.4752   ZZ=    28.7897
   Eigenvalues:    26.2791    31.2597    40.2199
     26  H    Isotropic =    32.7885   Anisotropy =    10.0399
   XX=    30.3423   YX=    -1.5518   ZX=    -1.2809
   XY=    -1.4847   YY=    32.7679   ZY=    -5.2371
   XZ=    -1.2965   YZ=    -5.4157   ZZ=    35.2553
   Eigenvalues:    27.2576    31.6262    39.4817
     27  H    Isotropic =    32.9254   Anisotropy =    10.9466
   XX=    31.2559   YX=     2.5939   ZX=    -1.1297
   XY=     2.5367   YY=    33.5562   ZY=     6.1994
   XZ=    -0.8726   YZ=     6.4517   ZZ=    33.9643
   Eigenvalues:    26.1484    32.4048    40.2232
     28  H    Isotropic =    32.6875   Anisotropy =    14.5709
   XX=    40.4641   YX=    -1.7891   ZX=    -4.2508
   XY=    -1.7136   YY=    27.1500   ZY=     1.7078
   XZ=    -4.4085   YZ=     1.6220   ZZ=    30.4483
   Eigenvalues:    26.4554    29.2055    42.4014
     29  H    Isotropic =    32.5570   Anisotropy =    10.0093
   XX=    30.9846   YX=     1.9459   ZX=     1.4301
   XY=     1.8932   YY=    38.5696   ZY=    -1.7555
   XZ=     1.2351   YZ=    -1.9149   ZZ=    28.1167
   Eigenvalues:    27.0751    31.3659    39.2298
     30  H    Isotropic =    32.5002   Anisotropy =    12.6346
   XX=    30.1407   YX=     1.6268   ZX=     1.0065
   XY=     1.3528   YY=    27.8677   ZY=     4.3252
   XZ=     0.7182   YZ=     3.8038   ZZ=    39.4922
   Eigenvalues:    26.2321    30.3453    40.9233
     31  H    Isotropic =    32.4591   Anisotropy =    14.5643
   XX=    41.6600   YX=     0.8126   ZX=     2.5342
   XY=     1.0478   YY=    27.6261   ZY=     1.5103
   XZ=     2.2710   YZ=     1.5353   ZZ=    28.0911
   Eigenvalues:    26.2635    28.9452    42.1686
 End of Minotr Frequency-dependent properties file   721 does not exist.
 End of Minotr Frequency-dependent properties file   722 does not exist.

 **********************************************************************

            Population analysis using the SCF density.

 **********************************************************************

 Orbital symmetries:
       Occupied  (A) (A) (A) (A) (A) (A) (A) (A) (A) (A) (A) (A)
                 (A) (A) (A) (A) (A) (A) (A) (A) (A) (A) (A) (A)
                 (A) (A) (A) (A) (A) (A) (A) (A) (A) (A) (A) (A)
                 (A) (A) (A) (A) (A) (A) (A) (A)
       Virtual   (A) (A) (A) (A) (A) (A) (A) (A) (A) (A) (A) (A)
                 (A) (A) (A) (A) (A) (A) (A) (A) (A) (A) (A) (A)
                 (A) (A) (A) (A) (A) (A) (A)
 The electronic state is 1-A.
 Alpha  occ. eigenvalues --  -20.23673 -11.08335 -11.05025 -11.04637 -11.04103
 Alpha  occ. eigenvalues --  -11.03656 -11.03604 -11.03583 -11.03433 -11.03270
 Alpha  occ. eigenvalues --  -11.03061  -1.27744  -1.08282  -1.04049  -0.96939
 Alpha  occ. eigenvalues --   -0.94722  -0.89384  -0.87775  -0.79884  -0.77493
 Alpha  occ. eigenvalues --   -0.73378  -0.70817  -0.61683  -0.60953  -0.59497
 Alpha  occ. eigenvalues --   -0.57732  -0.56677  -0.54703  -0.53195  -0.52685
 Alpha  occ. eigenvalues --   -0.51322  -0.50408  -0.49311  -0.47497  -0.47292
 Alpha  occ. eigenvalues --   -0.45452  -0.43691  -0.43096  -0.42316  -0.41364
 Alpha  occ. eigenvalues --   -0.40496  -0.38159  -0.37212  -0.32855
 Alpha virt. eigenvalues --    0.53432   0.55142   0.57823   0.58223   0.60900
 Alpha virt. eigenvalues --    0.61559   0.63251   0.65601   0.65840   0.67571
 Alpha virt. eigenvalues --    0.69040   0.69654   0.70438   0.71685   0.72192
 Alpha virt. eigenvalues --    0.72692   0.73443   0.74485   0.75586   0.76074
 Alpha virt. eigenvalues --    0.76657   0.77195   0.78617   0.79172   0.79854
 Alpha virt. eigenvalues --    0.81023   0.82137   0.82907   0.83214   0.84236
 Alpha virt. eigenvalues --    0.84840
          Condensed to atoms (all electrons):
              1          2          3          4          5          6
     1  C    4.738832   0.365898   0.000712   0.000739   0.000003  -0.024213
     2  C    0.365898   4.742725  -0.020262  -0.022417  -0.003058   0.364281
     3  C    0.000712  -0.020262   4.743995  -0.021773   0.355131  -0.003619
     4  C    0.000739  -0.022417  -0.021773   4.757452   0.360742   0.363131
     5  C    0.000003  -0.003058   0.355131   0.360742   4.792284  -0.021045
     6  C   -0.024213   0.364281  -0.003619   0.363131  -0.021045   4.755356
     7  C   -0.024181   0.363809   0.360868  -0.003346  -0.022937  -0.024045
     8  O   -0.000001   0.000242   0.267390   0.000231  -0.018294   0.000001
     9  C    0.000000   0.000004  -0.019199  -0.019467   0.358516   0.000599
    10  C    0.000000   0.000000  -0.001913  -0.001837  -0.020543   0.000005
    11  C    0.000000   0.000000   0.000583  -0.002290  -0.021343   0.000010
    12  H    0.382325  -0.020669   0.000008   0.000009   0.000001  -0.002221
    13  H    0.382356  -0.020315   0.000012  -0.000018   0.000000   0.001293
    14  H    0.382344  -0.020342  -0.000017   0.000013   0.000000  -0.002239
    15  H   -0.024059   0.381689  -0.001861  -0.001782   0.000066  -0.024120
    16  H    0.000002  -0.001510   0.375171  -0.001305  -0.025741   0.000090
    17  H   -0.000016   0.001285   0.001155   0.383138  -0.020463  -0.022469
    18  H    0.000004  -0.001798  -0.001907   0.381056  -0.022255  -0.023186
    19  H   -0.000006   0.000103  -0.024231  -0.023533   0.379161  -0.002076
    20  H   -0.002549  -0.022400   0.000048  -0.022914  -0.001754   0.381239
    21  H   -0.001994  -0.021443   0.000017  -0.021682   0.001203   0.382633
    22  H   -0.002529  -0.021377  -0.022343   0.000097  -0.001917  -0.001785
    23  H   -0.002055  -0.020729  -0.021475   0.000011   0.001165   0.001255
    24  H    0.000000  -0.000040  -0.040705  -0.000018  -0.000828  -0.000001
    25  H    0.000000   0.000000  -0.001776   0.001110  -0.023192  -0.000013
    26  H    0.000000   0.000000   0.000034  -0.000548  -0.001533  -0.000001
    27  H    0.000000   0.000000  -0.000806   0.000030  -0.001546  -0.000001
    28  H    0.000000   0.000000   0.000018   0.000014   0.001113   0.000000
    29  H    0.000000   0.000000  -0.000005  -0.000770  -0.001138   0.000001
    30  H    0.000000   0.000000   0.000017  -0.000030  -0.002576  -0.000003
    31  H    0.000000   0.000000  -0.000013   0.000026   0.001143   0.000000
              7          8          9         10         11         12
     1  C   -0.024181  -0.000001   0.000000   0.000000   0.000000   0.382325
     2  C    0.363809   0.000242   0.000004   0.000000   0.000000  -0.020669
     3  C    0.360868   0.267390  -0.019199  -0.001913   0.000583   0.000008
     4  C   -0.003346   0.000231  -0.019467  -0.001837  -0.002290   0.000009
     5  C   -0.022937  -0.018294   0.358516  -0.020543  -0.021343   0.000001
     6  C   -0.024045   0.000001   0.000599   0.000005   0.000010  -0.002221
     7  C    4.764627  -0.019736   0.000562   0.000006  -0.000004  -0.002218
     8  O   -0.019736   7.846451  -0.001183  -0.000003   0.000001   0.000000
     9  C    0.000562  -0.001183   4.745021   0.363893   0.364391   0.000000
    10  C    0.000006  -0.000003   0.363893   4.744973  -0.026026   0.000000
    11  C   -0.000004   0.000001   0.364391  -0.026026   4.741893   0.000000
    12  H   -0.002218   0.000000   0.000000   0.000000   0.000000   0.629399
    13  H   -0.002233   0.000000   0.000000   0.000000   0.000000  -0.021641
    14  H    0.001293   0.000000   0.000000   0.000000   0.000000  -0.021687
    15  H   -0.024223   0.000002  -0.000003   0.000000   0.000000   0.001885
    16  H   -0.025021  -0.017484  -0.001567  -0.000686  -0.000005  -0.000001
    17  H    0.000001  -0.000004  -0.001688   0.000037  -0.000924   0.000000
    18  H    0.000069   0.000001  -0.001614  -0.000581   0.000040  -0.000001
    19  H   -0.002316  -0.000586  -0.024334   0.001154  -0.002653  -0.000001
    20  H   -0.001782  -0.000001   0.000004   0.000000   0.000001   0.000350
    21  H    0.001267   0.000000  -0.000013   0.000000   0.000000   0.000001
    22  H    0.379836  -0.000656   0.000003  -0.000001   0.000000   0.000349
    23  H    0.381669  -0.000571  -0.000013   0.000000   0.000000  -0.000002
    24  H    0.002691   0.257910  -0.000710  -0.000035   0.000000   0.000000
    25  H    0.000003  -0.000234   0.381410  -0.025076  -0.025171   0.000000
    26  H   -0.000002   0.000000  -0.020245   0.382639  -0.002152   0.000000
    27  H    0.000001  -0.000036  -0.020006   0.382210   0.001337   0.000000
    28  H    0.000000   0.000000  -0.019924   0.382398  -0.002629   0.000000
    29  H    0.000000   0.000000  -0.020218  -0.002663   0.382563   0.000000
    30  H    0.000000   0.000000  -0.020131   0.001313   0.382265   0.000000
    31  H    0.000000   0.000000  -0.020018  -0.001906   0.382532   0.000000
             13         14         15         16         17         18
     1  C    0.382356   0.382344  -0.024059   0.000002  -0.000016   0.000004
     2  C   -0.020315  -0.020342   0.381689  -0.001510   0.001285  -0.001798
     3  C    0.000012  -0.000017  -0.001861   0.375171   0.001155  -0.001907
     4  C   -0.000018   0.000013  -0.001782  -0.001305   0.383138   0.381056
     5  C    0.000000   0.000000   0.000066  -0.025741  -0.020463  -0.022255
     6  C    0.001293  -0.002239  -0.024120   0.000090  -0.022469  -0.023186
     7  C   -0.002233   0.001293  -0.024223  -0.025021   0.000001   0.000069
     8  O    0.000000   0.000000   0.000002  -0.017484  -0.000004   0.000001
     9  C    0.000000   0.000000  -0.000003  -0.001567  -0.001688  -0.001614
    10  C    0.000000   0.000000   0.000000  -0.000686   0.000037  -0.000581
    11  C    0.000000   0.000000   0.000000  -0.000005  -0.000924   0.000040
    12  H   -0.021641  -0.021687   0.001885  -0.000001   0.000000  -0.000001
    13  H    0.629721  -0.021612  -0.002288   0.000001   0.000000   0.000000
    14  H   -0.021612   0.630675  -0.002281   0.000000  -0.000001   0.000002
    15  H   -0.002288  -0.002281   0.651901   0.000265   0.000004   0.000300
    16  H    0.000001   0.000000   0.000265   0.664370  -0.000011   0.000313
    17  H    0.000000  -0.000001   0.000004  -0.000011   0.638941  -0.023350
    18  H    0.000000   0.000002   0.000300   0.000313  -0.023350   0.645833
    19  H    0.000000   0.000000   0.000006   0.001842  -0.002372   0.001882
    20  H    0.000016  -0.000008   0.001892   0.000003  -0.002884   0.001956
    21  H    0.000012   0.000235  -0.002596  -0.000007  -0.002012  -0.002819
    22  H   -0.000015   0.000017   0.001878   0.001902  -0.000010   0.000004
    23  H    0.000246   0.000014  -0.002558  -0.002957   0.000002  -0.000008
    24  H    0.000000   0.000000   0.000000  -0.005697   0.000000   0.000002
    25  H    0.000000   0.000000   0.000000   0.000086   0.000007  -0.000003
    26  H    0.000000   0.000000   0.000000   0.000024   0.000035  -0.000658
    27  H    0.000000   0.000000   0.000000  -0.000733   0.000002   0.000030
    28  H    0.000000   0.000000   0.000000   0.000000  -0.000004   0.000000
    29  H    0.000000   0.000000   0.000000   0.000001  -0.000903   0.000038
    30  H    0.000000   0.000000   0.000000   0.000000   0.000005   0.000007
    31  H    0.000000   0.000000   0.000000   0.000000   0.000009  -0.000004
             19         20         21         22         23         24
     1  C   -0.000006  -0.002549  -0.001994  -0.002529  -0.002055   0.000000
     2  C    0.000103  -0.022400  -0.021443  -0.021377  -0.020729  -0.000040
     3  C   -0.024231   0.000048   0.000017  -0.022343  -0.021475  -0.040705
     4  C   -0.023533  -0.022914  -0.021682   0.000097   0.000011  -0.000018
     5  C    0.379161  -0.001754   0.001203  -0.001917   0.001165  -0.000828
     6  C   -0.002076   0.381239   0.382633  -0.001785   0.001255  -0.000001
     7  C   -0.002316  -0.001782   0.001267   0.379836   0.381669   0.002691
     8  O   -0.000586  -0.000001   0.000000  -0.000656  -0.000571   0.257910
     9  C   -0.024334   0.000004  -0.000013   0.000003  -0.000013  -0.000710
    10  C    0.001154   0.000000   0.000000  -0.000001   0.000000  -0.000035
    11  C   -0.002653   0.000001   0.000000   0.000000   0.000000   0.000000
    12  H   -0.000001   0.000350   0.000001   0.000349  -0.000002   0.000000
    13  H    0.000000   0.000016   0.000012  -0.000015   0.000246   0.000000
    14  H    0.000000  -0.000008   0.000235   0.000017   0.000014   0.000000
    15  H    0.000006   0.001892  -0.002596   0.001878  -0.002558   0.000000
    16  H    0.001842   0.000003  -0.000007   0.001902  -0.002957  -0.005697
    17  H   -0.002372  -0.002884  -0.002012  -0.000010   0.000002   0.000000
    18  H    0.001882   0.001956  -0.002819   0.000004  -0.000008   0.000002
    19  H    0.649310   0.000312   0.000011   0.000226   0.000006   0.000021
    20  H    0.000312   0.643347  -0.023374   0.000291   0.000002   0.000000
    21  H    0.000011  -0.023374   0.640613   0.000006  -0.000033   0.000000
    22  H    0.000226   0.000291   0.000006   0.634199  -0.023985   0.000021
    23  H    0.000006   0.000002  -0.000033  -0.023985   0.633578   0.000025
    24  H    0.000021   0.000000   0.000000   0.000021   0.000025   0.611068
    25  H   -0.002476   0.000000   0.000000   0.000002  -0.000001  -0.000939
    26  H   -0.000001   0.000000   0.000001   0.000000   0.000000  -0.000003
    27  H    0.000008   0.000000   0.000000   0.000000   0.000001   0.000024
    28  H   -0.000029   0.000000   0.000000   0.000000   0.000000  -0.000002
    29  H    0.000029   0.000001   0.000001   0.000000   0.000000   0.000000
    30  H    0.000248   0.000000   0.000000   0.000000   0.000000   0.000000
    31  H    0.000021   0.000000   0.000000   0.000000   0.000000   0.000001
             25         26         27         28         29         30
     1  C    0.000000   0.000000   0.000000   0.000000   0.000000   0.000000
     2  C    0.000000   0.000000   0.000000   0.000000   0.000000   0.000000
     3  C   -0.001776   0.000034  -0.000806   0.000018  -0.000005   0.000017
     4  C    0.001110  -0.000548   0.000030   0.000014  -0.000770  -0.000030
     5  C   -0.023192  -0.001533  -0.001546   0.001113  -0.001138  -0.002576
     6  C   -0.000013  -0.000001  -0.000001   0.000000   0.000001  -0.000003
     7  C    0.000003  -0.000002   0.000001   0.000000   0.000000   0.000000
     8  O   -0.000234   0.000000  -0.000036   0.000000   0.000000   0.000000
     9  C    0.381410  -0.020245  -0.020006  -0.019924  -0.020218  -0.020131
    10  C   -0.025076   0.382639   0.382210   0.382398  -0.002663   0.001313
    11  C   -0.025171  -0.002152   0.001337  -0.002629   0.382563   0.382265
    12  H    0.000000   0.000000   0.000000   0.000000   0.000000   0.000000
    13  H    0.000000   0.000000   0.000000   0.000000   0.000000   0.000000
    14  H    0.000000   0.000000   0.000000   0.000000   0.000000   0.000000
    15  H    0.000000   0.000000   0.000000   0.000000   0.000000   0.000000
    16  H    0.000086   0.000024  -0.000733   0.000000   0.000001   0.000000
    17  H    0.000007   0.000035   0.000002  -0.000004  -0.000903   0.000005
    18  H   -0.000003  -0.000658   0.000030   0.000000   0.000038   0.000007
    19  H   -0.002476  -0.000001   0.000008  -0.000029   0.000029   0.000248
    20  H    0.000000   0.000000   0.000000   0.000000   0.000001   0.000000
    21  H    0.000000   0.000001   0.000000   0.000000   0.000001   0.000000
    22  H    0.000002   0.000000   0.000000   0.000000   0.000000   0.000000
    23  H   -0.000001   0.000000   0.000001   0.000000   0.000000   0.000000
    24  H   -0.000939  -0.000003   0.000024  -0.000002   0.000000   0.000000
    25  H    0.656095   0.001917  -0.002305  -0.002425   0.001939  -0.001741
    26  H    0.001917   0.627428  -0.021687  -0.021803   0.000375   0.000009
    27  H   -0.002305  -0.021687   0.636714  -0.022223   0.000018  -0.000037
    28  H   -0.002425  -0.021803  -0.022223   0.629652  -0.000030   0.000034
    29  H    0.001939   0.000375   0.000018  -0.000030   0.630249  -0.021493
    30  H   -0.001741   0.000009  -0.000037   0.000034  -0.021493   0.629013
    31  H   -0.003340  -0.000005   0.000019   0.000105  -0.022255  -0.021599
             31
     1  C    0.000000
     2  C    0.000000
     3  C   -0.000013
     4  C    0.000026
     5  C    0.001143
     6  C    0.000000
     7  C    0.000000
     8  O    0.000000
     9  C   -0.020018
    10  C   -0.001906
    11  C    0.382532
    12  H    0.000000
    13  H    0.000000
    14  H    0.000000
    15  H    0.000000
    16  H    0.000000
    17  H    0.000009
    18  H   -0.000004
    19  H    0.000021
    20  H    0.000000
    21  H    0.000000
    22  H    0.000000
    23  H    0.000000
    24  H    0.000001
    25  H   -0.003340
    26  H   -0.000005
    27  H    0.000019
    28  H    0.000105
    29  H   -0.022255
    30  H   -0.021599
    31  H    0.631195
 Mulliken atomic charges:
              1
     1  C   -0.171612
     2  C   -0.023678
     3  C    0.076741
     4  C   -0.104066
     5  C   -0.040367
     6  C   -0.098856
     7  C   -0.104659
     8  O   -0.313440
     9  C   -0.024071
    10  C   -0.177356
    11  C   -0.172417
    12  H    0.054114
    13  H    0.054464
    14  H    0.053593
    15  H    0.045883
    16  H    0.038656
    17  H    0.052492
    18  H    0.046647
    19  H    0.050274
    20  H    0.048205
    21  H    0.049972
    22  H    0.055785
    23  H    0.056412
    24  H    0.177214
    25  H    0.046121
    26  H    0.056175
    27  H    0.048988
    28  H    0.055736
    29  H    0.054260
    30  H    0.054700
    31  H    0.054089
 Sum of Mulliken atomic charges =   0.00000
 Mulliken charges with hydrogens summed into heavy atoms:
              1
     1  C   -0.009441
     2  C    0.022205
     3  C    0.115397
     4  C   -0.004927
     5  C    0.009907
     6  C   -0.000678
     7  C    0.007538
     8  O   -0.136226
     9  C    0.022050
    10  C   -0.016457
    11  C   -0.009367
 Sum of Mulliken charges with hydrogens summed into heavy atoms =   0.00000
 Electronic spatial extent (au):  <R**2>=           2199.8156
 Charge=              0.0000 electrons
 Dipole moment (field-independent basis, Debye):
    X=             -0.6378    Y=             -0.8410    Z=              0.9338  Tot=              1.4093
 Quadrupole moment (field-independent basis, Debye-Ang):
   XX=            -66.3329   YY=            -70.4877   ZZ=            -67.8261
   XY=             -2.0109   XZ=             -0.1711   YZ=              2.4745
 Traceless Quadrupole moment (field-independent basis, Debye-Ang):
   XX=              1.8827   YY=             -2.2722   ZZ=              0.3895
   XY=             -2.0109   XZ=             -0.1711   YZ=              2.4745
 Octapole moment (field-independent basis, Debye-Ang**2):
  XXX=             -8.8664  YYY=              5.1325  ZZZ=             -4.0557  XYY=             -5.4353
  XXY=             10.5598  XXZ=             -0.6175  XZZ=              1.4954  YZZ=              2.4559
  YYZ=              6.8247  XYZ=             -0.2204
 Hexadecapole moment (field-independent basis, Debye-Ang**3):
 XXXX=          -1939.8938 YYYY=           -624.7390 ZZZZ=           -256.3095 XXXY=            -11.8263
 XXXZ=              3.2057 YYYX=            -21.7085 YYYZ=              7.4708 ZZZX=              0.9087
 ZZZY=             -4.5858 XXYY=           -411.3399 XXZZ=           -368.3357 YYZZ=           -148.0469
 XXYZ=             -4.5035 YYXZ=              0.4718 ZZXY=             -1.4504
 N-N= 6.889098226908D+02 E-N=-2.449712750625D+03  KE= 4.555366807677D+02
 ******************************Gaussian NBO Version 3.1******************************
             N A T U R A L   A T O M I C   O R B I T A L   A N D
          N A T U R A L   B O N D   O R B I T A L   A N A L Y S I S
 ******************************Gaussian NBO Version 3.1******************************
       /RESON  / : Allow strongly delocalized NBO set
       /NLMO   / : Form Natural Localized Molecular Orbitals
       /NMR /    : Analyze NMR Sheilding Tensor 

 Analyzing the SCF density

 Job title: comment                                                         

 Storage needed:     19864 in NPA,     23691 in NBO,     45933 in NLMO (  33549317 available)


 NATURAL POPULATIONS:  Natural atomic orbital occupancies 
                                                          
   NAO  Atom  No  lang   Type(AO)    Occupancy      Energy
 ----------------------------------------------------------
     1    C    1  S      Cor( 1S)     1.99997     -10.96412
     2    C    1  S      Val( 2S)     1.07938      -0.18028
     3    C    1  px     Val( 2p)     0.99171       0.08928
     4    C    1  py     Val( 2p)     1.02867       0.08496
     5    C    1  pz     Val( 2p)     1.02705       0.08542

     6    C    2  S      Cor( 1S)     1.99997     -10.98846
     7    C    2  S      Val( 2S)     1.07804      -0.19008
     8    C    2  px     Val( 2p)     0.95625       0.10861
     9    C    2  py     Val( 2p)     0.95903       0.10899
    10    C    2  pz     Val( 2p)     0.99231       0.10317

    11    C    3  S      Cor( 1S)     1.99989     -11.03238
    12    C    3  S      Val( 2S)     1.08720      -0.21456
    13    C    3  px     Val( 2p)     0.95913       0.08457
    14    C    3  py     Val( 2p)     0.85857       0.11854
    15    C    3  pz     Val( 2p)     0.95082       0.10283

    16    C    4  S      Cor( 1S)     1.99996     -10.97484
    17    C    4  S      Val( 2S)     1.08361      -0.18897
    18    C    4  px     Val( 2p)     0.98034       0.09525
    19    C    4  py     Val( 2p)     0.99219       0.09475
    20    C    4  pz     Val( 2p)     1.01014       0.09392

    21    C    5  S      Cor( 1S)     1.99995     -10.98655
    22    C    5  S      Val( 2S)     1.10347      -0.21126
    23    C    5  px     Val( 2p)     0.95385       0.10770
    24    C    5  py     Val( 2p)     0.96377       0.10316
    25    C    5  pz     Val( 2p)     0.99906       0.09667

    26    C    6  S      Cor( 1S)     1.99996     -10.97406
    27    C    6  S      Val( 2S)     1.08327      -0.18745
    28    C    6  px     Val( 2p)     0.97372       0.09935
    29    C    6  py     Val( 2p)     0.99220       0.09560
    30    C    6  pz     Val( 2p)     1.01212       0.09377

    31    C    7  S      Cor( 1S)     1.99996     -10.97270
    32    C    7  S      Val( 2S)     1.09017      -0.19212
    33    C    7  px     Val( 2p)     0.97726       0.09566
    34    C    7  py     Val( 2p)     0.99432       0.09729
    35    C    7  pz     Val( 2p)     1.01947       0.09085

    36    O    8  S      Cor( 1S)     1.99999     -20.14009
    37    O    8  S      Val( 2S)     1.74943      -0.99758
    38    O    8  px     Val( 2p)     1.38731      -0.13313
    39    O    8  py     Val( 2p)     1.46202      -0.15841
    40    O    8  pz     Val( 2p)     1.73570      -0.27835

    41    C    9  S      Cor( 1S)     1.99996     -10.99427
    42    C    9  S      Val( 2S)     1.08473      -0.20007
    43    C    9  px     Val( 2p)     0.95933       0.10520
    44    C    9  py     Val( 2p)     0.98363       0.09795
    45    C    9  pz     Val( 2p)     0.95517       0.10935

    46    C   10  S      Cor( 1S)     1.99997     -10.96940
    47    C   10  S      Val( 2S)     1.07957      -0.18671
    48    C   10  px     Val( 2p)     1.02860       0.07600
    49    C   10  py     Val( 2p)     1.02758       0.07972
    50    C   10  pz     Val( 2p)     0.99768       0.08267

    51    C   11  S      Cor( 1S)     1.99997     -10.96654
    52    C   11  S      Val( 2S)     1.08087      -0.18412
    53    C   11  px     Val( 2p)     1.01885       0.08234
    54    C   11  py     Val( 2p)     1.00752       0.08612
    55    C   11  pz     Val( 2p)     1.02079       0.08324

    56    H   12  S      Val( 1S)     0.96323       0.07581

    57    H   13  S      Val( 1S)     0.96286       0.07620

    58    H   14  S      Val( 1S)     0.96364       0.07520

    59    H   15  S      Val( 1S)     0.97801       0.06393

    60    H   16  S      Val( 1S)     0.99660       0.04678

    61    H   17  S      Val( 1S)     0.96863       0.07298

    62    H   18  S      Val( 1S)     0.97420       0.06829

    63    H   19  S      Val( 1S)     0.97516       0.06813

    64    H   20  S      Val( 1S)     0.97263       0.06986

    65    H   21  S      Val( 1S)     0.97071       0.07022

    66    H   22  S      Val( 1S)     0.96520       0.07723

    67    H   23  S      Val( 1S)     0.96459       0.07736

    68    H   24  S      Val( 1S)     0.81039       0.07861

    69    H   25  S      Val( 1S)     0.97891       0.06173

    70    H   26  S      Val( 1S)     0.96122       0.07280

    71    H   27  S      Val( 1S)     0.96787       0.06659

    72    H   28  S      Val( 1S)     0.96130       0.07058

    73    H   29  S      Val( 1S)     0.96337       0.07467

    74    H   30  S      Val( 1S)     0.96283       0.07424

    75    H   31  S      Val( 1S)     0.96321       0.07275


 Summary of Natural Population Analysis:                  
                                                          
                                       Natural Population 
                Natural  -----------------------------------------------
    Atom  No    Charge         Core      Valence    Rydberg      Total
 -----------------------------------------------------------------------
      C    1   -0.12679      1.99997     4.12682    0.00000     6.12679
      C    2    0.01440      1.99997     3.98563    0.00000     5.98560
      C    3    0.14439      1.99989     3.85573    0.00000     5.85561
      C    4   -0.06624      1.99996     4.06628    0.00000     6.06624
      C    5   -0.02010      1.99995     4.02014    0.00000     6.02010
      C    6   -0.06128      1.99996     4.06132    0.00000     6.06128
      C    7   -0.08118      1.99996     4.08122    0.00000     6.08118
      O    8   -0.33444      1.99999     6.33445    0.00000     8.33444
      C    9    0.01718      1.99996     3.98286    0.00000     5.98282
      C   10   -0.13341      1.99997     4.13344    0.00000     6.13341
      C   11   -0.12800      1.99997     4.12803    0.00000     6.12800
      H   12    0.03677      0.00000     0.96323    0.00000     0.96323
      H   13    0.03714      0.00000     0.96286    0.00000     0.96286
      H   14    0.03636      0.00000     0.96364    0.00000     0.96364
      H   15    0.02199      0.00000     0.97801    0.00000     0.97801
      H   16    0.00340      0.00000     0.99660    0.00000     0.99660
      H   17    0.03137      0.00000     0.96863    0.00000     0.96863
      H   18    0.02580      0.00000     0.97420    0.00000     0.97420
      H   19    0.02484      0.00000     0.97516    0.00000     0.97516
      H   20    0.02737      0.00000     0.97263    0.00000     0.97263
      H   21    0.02929      0.00000     0.97071    0.00000     0.97071
      H   22    0.03480      0.00000     0.96520    0.00000     0.96520
      H   23    0.03541      0.00000     0.96459    0.00000     0.96459
      H   24    0.18961      0.00000     0.81039    0.00000     0.81039
      H   25    0.02109      0.00000     0.97891    0.00000     0.97891
      H   26    0.03878      0.00000     0.96122    0.00000     0.96122
      H   27    0.03213      0.00000     0.96787    0.00000     0.96787
      H   28    0.03870      0.00000     0.96130    0.00000     0.96130
      H   29    0.03663      0.00000     0.96337    0.00000     0.96337
      H   30    0.03717      0.00000     0.96283    0.00000     0.96283
      H   31    0.03679      0.00000     0.96321    0.00000     0.96321
 =======================================================================
   * Total *    0.00000     21.99955    66.00045    0.00000    88.00000

                                 Natural Population      
 --------------------------------------------------------
   Core                      21.99955 ( 99.9980% of  22)
   Valence                   66.00045 (100.0007% of  66)
   Natural Minimal Basis     88.00000 (100.0000% of  88)
   Natural Rydberg Basis      0.00000 (  0.0000% of  88)
 --------------------------------------------------------

    Atom  No          Natural Electron Configuration
 ----------------------------------------------------------------------------
      C    1      [core]2S( 1.08)2p( 3.05)
      C    2      [core]2S( 1.08)2p( 2.91)
      C    3      [core]2S( 1.09)2p( 2.77)
      C    4      [core]2S( 1.08)2p( 2.98)
      C    5      [core]2S( 1.10)2p( 2.92)
      C    6      [core]2S( 1.08)2p( 2.98)
      C    7      [core]2S( 1.09)2p( 2.99)
      O    8      [core]2S( 1.75)2p( 4.59)
      C    9      [core]2S( 1.08)2p( 2.90)
      C   10      [core]2S( 1.08)2p( 3.05)
      C   11      [core]2S( 1.08)2p( 3.05)
      H   12            1S( 0.96)
      H   13            1S( 0.96)
      H   14            1S( 0.96)
      H   15            1S( 0.98)
      H   16            1S( 1.00)
      H   17            1S( 0.97)
      H   18            1S( 0.97)
      H   19            1S( 0.98)
      H   20            1S( 0.97)
      H   21            1S( 0.97)
      H   22            1S( 0.97)
      H   23            1S( 0.96)
      H   24            1S( 0.81)
      H   25            1S( 0.98)
      H   26            1S( 0.96)
      H   27            1S( 0.97)
      H   28            1S( 0.96)
      H   29            1S( 0.96)
      H   30            1S( 0.96)
      H   31            1S( 0.96)


 NATURAL BOND ORBITAL ANALYSIS:

                       Occupancies       Lewis Structure    Low   High
           Occ.    -------------------  -----------------   occ   occ
  Cycle   Thresh.   Lewis   Non-Lewis     CR  BD  3C  LP    (L)   (NL)   Dev
 =============================================================================
   1(1)    1.90    87.63590   0.36410     11  31   0   2     0      0    0.02
 -----------------------------------------------------------------------------

 Structure accepted: No low occupancy Lewis orbitals

 --------------------------------------------------------
   Core                     21.99955 ( 99.998% of  22)
   Valence Lewis            65.63635 ( 99.449% of  66)
  ==================       ============================
   Total Lewis              87.63590 ( 99.586% of  88)
  -----------------------------------------------------
   Valence non-Lewis         0.36410 (  0.414% of  88)
   Rydberg non-Lewis         0.00000 (  0.000% of  88)
  ==================       ============================
   Total non-Lewis           0.36410 (  0.414% of  88)
 --------------------------------------------------------


       (Occupancy)   Bond orbital/ Coefficients/ Hybrids
 ---------------------------------------------------------------------------------
     1. (1.98896) BD ( 1) C   1 - C   2  
                ( 50.79%)   0.7127* C   1 s( 25.75%)p 2.88( 74.25%)
                                            0.0001  0.5074 -0.8362  0.0611  0.1989
                ( 49.21%)   0.7015* C   2 s( 25.21%)p 2.97( 74.79%)
                                            0.0000  0.5021  0.8336 -0.0604 -0.2222
     2. (1.99544) BD ( 1) C   1 - H  12  
                ( 51.88%)   0.7203* C   1 s( 24.84%)p 3.03( 75.16%)
                                            0.0000  0.4984  0.0955 -0.0283 -0.8612
                ( 48.12%)   0.6937* H  12 s(100.00%)
                                            1.0000
     3. (1.99501) BD ( 1) C   1 - H  13  
                ( 51.87%)   0.7202* C   1 s( 24.71%)p 3.05( 75.29%)
                                            0.0000  0.4970  0.4262  0.6883  0.3123
                ( 48.13%)   0.6938* H  13 s(100.00%)
                                            1.0000
     4. (1.99496) BD ( 1) C   1 - H  14  
                ( 51.83%)   0.7199* C   1 s( 24.71%)p 3.05( 75.29%)
                                            0.0000  0.4971  0.3317 -0.7223  0.3482
                ( 48.17%)   0.6941* H  14 s(100.00%)
                                            1.0000
     5. (1.98551) BD ( 1) C   2 - C   6  
                ( 49.67%)   0.7048* C   2 s( 25.05%)p 2.99( 74.95%)
                                            0.0000  0.5005 -0.4312 -0.6883 -0.2998
                ( 50.33%)   0.7094* C   6 s( 25.34%)p 2.95( 74.66%)
                                            0.0001  0.5034  0.4247  0.6950  0.2884
     6. (1.98344) BD ( 1) C   2 - C   7  
                ( 49.46%)   0.7033* C   2 s( 25.04%)p 2.99( 74.96%)
                                            0.0000  0.5004 -0.3387  0.7224 -0.3361
                ( 50.54%)   0.7109* C   7 s( 25.65%)p 2.90( 74.35%)
                                            0.0001  0.5065  0.3287 -0.7282  0.3242
     7. (1.98498) BD ( 1) C   2 - H  15  
                ( 51.04%)   0.7144* C   2 s( 24.70%)p 3.05( 75.30%)
                                            0.0000  0.4970 -0.0670  0.0266  0.8648
                ( 48.96%)   0.6997* H  15 s(100.00%)
                                            1.0000
     8. (1.98279) BD ( 1) C   3 - C   5  
                ( 49.95%)   0.7067* C   3 s( 25.93%)p 2.86( 74.07%)
                                            0.0001  0.5092 -0.4409 -0.6787 -0.2926
                ( 50.05%)   0.7075* C   5 s( 24.98%)p 3.00( 75.02%)
                                            0.0000  0.4998  0.4149  0.6892  0.3212
     9. (1.98578) BD ( 1) C   3 - C   7  
                ( 50.01%)   0.7072* C   3 s( 26.22%)p 2.81( 73.78%)
                                            0.0000  0.5120  0.8324 -0.0702 -0.2002
                ( 49.99%)   0.7070* C   7 s( 24.98%)p 3.00( 75.02%)
                                            0.0001  0.4998 -0.8455  0.0470  0.1819
    10. (1.98869) BD ( 1) C   3 - O   8  
                ( 41.06%)   0.6408* C   3 s( 22.43%)p 3.46( 77.57%)
                                            0.0000  0.4736 -0.3212  0.7273 -0.3790
                ( 58.94%)   0.7677* O   8 s( 16.37%)p 5.11( 83.63%)
                                            0.0000  0.4045  0.2470 -0.7708  0.4256
    11. (1.98847) BD ( 1) C   3 - H  16  
                ( 50.46%)   0.7104* C   3 s( 25.43%)p 2.93( 74.57%)
                                            0.0000  0.5043 -0.0983  0.0737  0.8548
                ( 49.54%)   0.7038* H  16 s(100.00%)
                                            1.0000
    12. (1.98442) BD ( 1) C   4 - C   5  
                ( 50.38%)   0.7098* C   4 s( 25.37%)p 2.94( 74.63%)
                                            0.0001  0.5037 -0.3392  0.7256 -0.3235
                ( 49.62%)   0.7044* C   5 s( 25.36%)p 2.94( 74.64%)
                                            0.0000  0.5036  0.3246 -0.7219  0.3462
    13. (1.98877) BD ( 1) C   4 - C   6  
                ( 50.08%)   0.7077* C   4 s( 25.07%)p 2.99( 74.93%)
                                            0.0000  0.5007  0.8457 -0.0331 -0.1815
                ( 49.92%)   0.7065* C   6 s( 25.11%)p 2.98( 74.89%)
                                            0.0000  0.5011 -0.8432  0.0782  0.1784
    14. (1.98947) BD ( 1) C   4 - H  17  
                ( 51.55%)   0.7180* C   4 s( 24.92%)p 3.01( 75.08%)
                                            0.0000  0.4992 -0.3971 -0.6872 -0.3477
                ( 48.45%)   0.6960* H  17 s(100.00%)
                                            1.0000
    15. (1.99034) BD ( 1) C   4 - H  18  
                ( 51.32%)   0.7164* C   4 s( 24.64%)p 3.06( 75.36%)
                                            0.0000  0.4963 -0.1095 -0.0118  0.8611
                ( 48.68%)   0.6977* H  18 s(100.00%)
                                            1.0000
    16. (1.97899) BD ( 1) C   5 - C   9  
                ( 49.80%)   0.7057* C   5 s( 25.39%)p 2.94( 74.61%)
                                            0.0001  0.5038 -0.8429  0.0585  0.1794
                ( 50.20%)   0.7085* C   9 s( 25.45%)p 2.93( 74.55%)
                                            0.0001  0.5045  0.8540 -0.0841 -0.0951
    17. (1.98359) BD ( 1) C   5 - H  19  
                ( 51.15%)   0.7152* C   5 s( 24.28%)p 3.12( 75.72%)
                                            0.0000  0.4927  0.1093 -0.0210 -0.8630
                ( 48.85%)   0.6990* H  19 s(100.00%)
                                            1.0000
    18. (1.99074) BD ( 1) C   6 - H  20  
                ( 51.40%)   0.7169* C   6 s( 24.66%)p 3.05( 75.34%)
                                            0.0000  0.4966  0.1070 -0.0688 -0.8586
                ( 48.60%)   0.6971* H  20 s(100.00%)
                                            1.0000
    19. (1.98979) BD ( 1) C   6 - H  21  
                ( 51.44%)   0.7172* C   6 s( 24.89%)p 3.02( 75.11%)
                                            0.0000  0.4989  0.3118 -0.7114  0.3845
                ( 48.56%)   0.6969* H  21 s(100.00%)
                                            1.0000
    20. (1.98974) BD ( 1) C   7 - H  22  
                ( 51.76%)   0.7194* C   7 s( 24.58%)p 3.07( 75.42%)
                                            0.0000  0.4957  0.1082  0.0101 -0.8616
                ( 48.24%)   0.6946* H  22 s(100.00%)
                                            1.0000
    21. (1.98928) BD ( 1) C   7 - H  23  
                ( 51.74%)   0.7193* C   7 s( 24.79%)p 3.03( 75.21%)
                                            0.0000  0.4979  0.4066  0.6836  0.3455
                ( 48.26%)   0.6947* H  23 s(100.00%)
                                            1.0000
    22. (1.98954) BD ( 1) O   8 - H  24  
                ( 59.50%)   0.7713* O   8 s( 16.71%)p 4.98( 83.29%)
                                            0.0000 -0.4088  0.8055 -0.1731 -0.3924
                ( 40.50%)   0.6364* H  24 s(100.00%)
                                           -1.0000
    23. (1.99044) BD ( 1) C   9 - C  10  
                ( 48.90%)   0.6993* C   9 s( 25.21%)p 2.97( 74.79%)
                                            0.0000  0.5021 -0.1998  0.0322  0.8408
                ( 51.10%)   0.7149* C  10 s( 25.86%)p 2.87( 74.14%)
                                            0.0001  0.5085  0.2403 -0.0524 -0.8252
    24. (1.98883) BD ( 1) C   9 - C  11  
                ( 49.16%)   0.7011* C   9 s( 25.03%)p 2.99( 74.97%)
                                            0.0000  0.5003 -0.4028 -0.6719 -0.3687
                ( 50.84%)   0.7130* C  11 s( 25.72%)p 2.89( 74.28%)
                                            0.0001  0.5072  0.4389  0.6367  0.3805
    25. (1.98317) BD ( 1) C   9 - H  25  
                ( 50.94%)   0.7137* C   9 s( 24.31%)p 3.11( 75.69%)
                                            0.0000  0.4930 -0.2617  0.7351 -0.3848
                ( 49.06%)   0.7004* H  25 s(100.00%)
                                            1.0000
    26. (1.99506) BD ( 1) C  10 - H  26  
                ( 51.99%)   0.7210* C  10 s( 24.91%)p 3.01( 75.09%)
                                            0.0000  0.4991  0.2375 -0.7184  0.4224
                ( 48.01%)   0.6929* H  26 s(100.00%)
                                            1.0000
    27. (1.99437) BD ( 1) C  10 - H  27  
                ( 51.63%)   0.7185* C  10 s( 24.72%)p 3.05( 75.28%)
                                            0.0000  0.4971  0.3753  0.6882  0.3720
                ( 48.37%)   0.6955* H  27 s(100.00%)
                                            1.0000
    28. (1.99435) BD ( 1) C  10 - H  28  
                ( 51.93%)   0.7206* C  10 s( 24.51%)p 3.08( 75.49%)
                                            0.0000  0.4951 -0.8631  0.0869  0.0482
                ( 48.07%)   0.6933* H  28 s(100.00%)
                                            1.0000
    29. (1.99515) BD ( 1) C  11 - H  29  
                ( 51.88%)   0.7203* C  11 s( 24.89%)p 3.02( 75.11%)
                                            0.0000  0.4989  0.1530 -0.7480  0.4101
                ( 48.12%)   0.6937* H  29 s(100.00%)
                                            1.0000
    30. (1.99503) BD ( 1) C  11 - H  30  
                ( 51.88%)   0.7203* C  11 s( 24.78%)p 3.03( 75.22%)
                                            0.0000  0.4978  0.2468 -0.0716 -0.8283
                ( 48.12%)   0.6937* H  30 s(100.00%)
                                            1.0000
    31. (1.99460) BD ( 1) C  11 - H  31  
                ( 51.83%)   0.7200* C  11 s( 24.60%)p 3.06( 75.40%)
                                            0.0000  0.4960 -0.8503  0.1732  0.0298
                ( 48.17%)   0.6940* H  31 s(100.00%)
                                            1.0000
    32. (1.99997) CR ( 1) C   1           s(100.00%)
                                            1.0000  0.0000  0.0001  0.0000  0.0000
    33. (1.99997) CR ( 1) C   2           s(100.00%)
                                            1.0000  0.0000  0.0000  0.0000  0.0000
    34. (1.99989) CR ( 1) C   3           s(100.00%)
                                            1.0000  0.0000  0.0000  0.0001  0.0000
    35. (1.99996) CR ( 1) C   4           s(100.00%)
                                            1.0000  0.0000  0.0000 -0.0001  0.0000
    36. (1.99995) CR ( 1) C   5           s(100.00%)
                                            1.0000  0.0000  0.0000  0.0000  0.0000
    37. (1.99996) CR ( 1) C   6           s(100.00%)
                                            1.0000  0.0000  0.0000 -0.0001  0.0000
    38. (1.99996) CR ( 1) C   7           s(100.00%)
                                            1.0000 -0.0001  0.0000  0.0001  0.0000
    39. (1.99999) CR ( 1) O   8           s(100.00%)
                                            1.0000  0.0000  0.0000  0.0000  0.0000
    40. (1.99996) CR ( 1) C   9           s(100.00%)
                                            1.0000  0.0000 -0.0001  0.0000  0.0000
    41. (1.99997) CR ( 1) C  10           s(100.00%)
                                            1.0000  0.0000  0.0000  0.0000  0.0001
    42. (1.99997) CR ( 1) C  11           s(100.00%)
                                            1.0000  0.0000 -0.0001  0.0000  0.0000
    43. (1.99330) LP ( 1) O   8           s( 66.54%)p 0.50( 33.46%)
                                            0.0000  0.8157  0.2450  0.2534 -0.4586
    44. (1.97336) LP ( 2) O   8           s(  0.38%)p99.99( 99.62%)
                                            0.0000  0.0616  0.4796  0.5583  0.6742
    45. (0.00997) BD*( 1) C   1 - C   2  
                ( 49.21%)   0.7015* C   1 s( 25.75%)p 2.88( 74.25%)
                                           -0.0001 -0.5074  0.8362 -0.0611 -0.1989
                ( 50.79%)  -0.7127* C   2 s( 25.21%)p 2.97( 74.79%)
                                            0.0000 -0.5021 -0.8336  0.0604  0.2222
    46. (0.00586) BD*( 1) C   1 - H  12  
                ( 48.12%)   0.6937* C   1 s( 24.84%)p 3.03( 75.16%)
                                            0.0000 -0.4984 -0.0955  0.0283  0.8612
                ( 51.88%)  -0.7203* H  12 s(100.00%)
                                           -1.0000
    47. (0.00512) BD*( 1) C   1 - H  13  
                ( 48.13%)   0.6938* C   1 s( 24.71%)p 3.05( 75.29%)
                                            0.0000 -0.4970 -0.4262 -0.6883 -0.3123
                ( 51.87%)  -0.7202* H  13 s(100.00%)
                                           -1.0000
    48. (0.00510) BD*( 1) C   1 - H  14  
                ( 48.17%)   0.6941* C   1 s( 24.71%)p 3.05( 75.29%)
                                            0.0000 -0.4971 -0.3317  0.7223 -0.3482
                ( 51.83%)  -0.7199* H  14 s(100.00%)
                                           -1.0000
    49. (0.01600) BD*( 1) C   2 - C   6  
                ( 50.33%)   0.7094* C   2 s( 25.05%)p 2.99( 74.95%)
                                            0.0000  0.5005 -0.4312 -0.6883 -0.2998
                ( 49.67%)  -0.7048* C   6 s( 25.34%)p 2.95( 74.66%)
                                            0.0001  0.5034  0.4247  0.6950  0.2884
    50. (0.01451) BD*( 1) C   2 - C   7  
                ( 50.54%)   0.7109* C   2 s( 25.04%)p 2.99( 74.96%)
                                            0.0000  0.5004 -0.3387  0.7224 -0.3361
                ( 49.46%)  -0.7033* C   7 s( 25.65%)p 2.90( 74.35%)
                                            0.0001  0.5065  0.3287 -0.7282  0.3242
    51. (0.01210) BD*( 1) C   2 - H  15  
                ( 48.96%)   0.6997* C   2 s( 24.70%)p 3.05( 75.30%)
                                            0.0000 -0.4970  0.0670 -0.0266 -0.8648
                ( 51.04%)  -0.7144* H  15 s(100.00%)
                                           -1.0000
    52. (0.03509) BD*( 1) C   3 - C   5  
                ( 50.05%)   0.7075* C   3 s( 25.93%)p 2.86( 74.07%)
                                            0.0001  0.5092 -0.4409 -0.6787 -0.2926
                ( 49.95%)  -0.7067* C   5 s( 24.98%)p 3.00( 75.02%)
                                            0.0000  0.4998  0.4149  0.6892  0.3212
    53. (0.02156) BD*( 1) C   3 - C   7  
                ( 49.99%)   0.7070* C   3 s( 26.22%)p 2.81( 73.78%)
                                            0.0000 -0.5120 -0.8324  0.0702  0.2002
                ( 50.01%)  -0.7072* C   7 s( 24.98%)p 3.00( 75.02%)
                                           -0.0001 -0.4998  0.8455 -0.0470 -0.1819
    54. (0.02131) BD*( 1) C   3 - O   8  
                ( 58.94%)   0.7677* C   3 s( 22.43%)p 3.46( 77.57%)
                                            0.0000  0.4736 -0.3212  0.7273 -0.3790
                ( 41.06%)  -0.6408* O   8 s( 16.37%)p 5.11( 83.63%)
                                            0.0000  0.4045  0.2470 -0.7708  0.4256
    55. (0.02291) BD*( 1) C   3 - H  16  
                ( 49.54%)   0.7038* C   3 s( 25.43%)p 2.93( 74.57%)
                                            0.0000 -0.5043  0.0983 -0.0737 -0.8548
                ( 50.46%)  -0.7104* H  16 s(100.00%)
                                           -1.0000
    56. (0.01629) BD*( 1) C   4 - C   5  
                ( 49.62%)   0.7044* C   4 s( 25.37%)p 2.94( 74.63%)
                                           -0.0001 -0.5037  0.3392 -0.7256  0.3235
                ( 50.38%)  -0.7098* C   5 s( 25.36%)p 2.94( 74.64%)
                                            0.0000 -0.5036 -0.3246  0.7219 -0.3462
    57. (0.01130) BD*( 1) C   4 - C   6  
                ( 49.92%)   0.7065* C   4 s( 25.07%)p 2.99( 74.93%)
                                            0.0000 -0.5007 -0.8457  0.0331  0.1815
                ( 50.08%)  -0.7077* C   6 s( 25.11%)p 2.98( 74.89%)
                                            0.0000 -0.5011  0.8432 -0.0782 -0.1784
    58. (0.00933) BD*( 1) C   4 - H  17  
                ( 48.45%)   0.6960* C   4 s( 24.92%)p 3.01( 75.08%)
                                            0.0000 -0.4992  0.3971  0.6872  0.3477
                ( 51.55%)  -0.7180* H  17 s(100.00%)
                                           -1.0000
    59. (0.01043) BD*( 1) C   4 - H  18  
                ( 48.68%)   0.6977* C   4 s( 24.64%)p 3.06( 75.36%)
                                            0.0000 -0.4963  0.1095  0.0118 -0.8611
                ( 51.32%)  -0.7164* H  18 s(100.00%)
                                           -1.0000
    60. (0.02292) BD*( 1) C   5 - C   9  
                ( 50.20%)   0.7085* C   5 s( 25.39%)p 2.94( 74.61%)
                                            0.0001  0.5038 -0.8429  0.0585  0.1794
                ( 49.80%)  -0.7057* C   9 s( 25.45%)p 2.93( 74.55%)
                                            0.0001  0.5045  0.8540 -0.0841 -0.0951
    61. (0.01193) BD*( 1) C   5 - H  19  
                ( 48.85%)   0.6990* C   5 s( 24.28%)p 3.12( 75.72%)
                                            0.0000 -0.4927 -0.1093  0.0210  0.8630
                ( 51.15%)  -0.7152* H  19 s(100.00%)
                                           -1.0000
    62. (0.00997) BD*( 1) C   6 - H  20  
                ( 48.60%)   0.6971* C   6 s( 24.66%)p 3.05( 75.34%)
                                            0.0000 -0.4966 -0.1070  0.0688  0.8586
                ( 51.40%)  -0.7169* H  20 s(100.00%)
                                           -1.0000
    63. (0.00852) BD*( 1) C   6 - H  21  
                ( 48.56%)   0.6969* C   6 s( 24.89%)p 3.02( 75.11%)
                                            0.0000 -0.4989 -0.3118  0.7114 -0.3845
                ( 51.44%)  -0.7172* H  21 s(100.00%)
                                           -1.0000
    64. (0.01021) BD*( 1) C   7 - H  22  
                ( 48.24%)   0.6946* C   7 s( 24.58%)p 3.07( 75.42%)
                                            0.0000 -0.4957 -0.1082 -0.0101  0.8616
                ( 51.76%)  -0.7194* H  22 s(100.00%)
                                           -1.0000
    65. (0.00882) BD*( 1) C   7 - H  23  
                ( 48.26%)   0.6947* C   7 s( 24.79%)p 3.03( 75.21%)
                                            0.0000 -0.4979 -0.4066 -0.6836 -0.3455
                ( 51.74%)  -0.7193* H  23 s(100.00%)
                                           -1.0000
    66. (0.00770) BD*( 1) O   8 - H  24  
                ( 40.50%)   0.6364* O   8 s( 16.71%)p 4.98( 83.29%)
                                            0.0000  0.4088 -0.8055  0.1731  0.3924
                ( 59.50%)  -0.7713* H  24 s(100.00%)
                                            1.0000
    67. (0.01110) BD*( 1) C   9 - C  10  
                ( 51.10%)   0.7149* C   9 s( 25.21%)p 2.97( 74.79%)
                                            0.0000  0.5021 -0.1998  0.0322  0.8408
                ( 48.90%)  -0.6993* C  10 s( 25.86%)p 2.87( 74.14%)
                                            0.0001  0.5085  0.2403 -0.0524 -0.8252
    68. (0.01029) BD*( 1) C   9 - C  11  
                ( 50.84%)   0.7130* C   9 s( 25.03%)p 2.99( 74.97%)
                                            0.0000  0.5003 -0.4028 -0.6719 -0.3687
                ( 49.16%)  -0.7011* C  11 s( 25.72%)p 2.89( 74.28%)
                                            0.0001  0.5072  0.4389  0.6367  0.3805
    69. (0.01180) BD*( 1) C   9 - H  25  
                ( 49.06%)   0.7004* C   9 s( 24.31%)p 3.11( 75.69%)
                                            0.0000 -0.4930  0.2617 -0.7351  0.3848
                ( 50.94%)  -0.7137* H  25 s(100.00%)
                                           -1.0000
    70. (0.00642) BD*( 1) C  10 - H  26  
                ( 48.01%)   0.6929* C  10 s( 24.91%)p 3.01( 75.09%)
                                            0.0000 -0.4991 -0.2375  0.7184 -0.4224
                ( 51.99%)  -0.7210* H  26 s(100.00%)
                                           -1.0000
    71. (0.00612) BD*( 1) C  10 - H  27  
                ( 48.37%)   0.6955* C  10 s( 24.72%)p 3.05( 75.28%)
                                            0.0000 -0.4971 -0.3753 -0.6882 -0.3720
                ( 51.63%)  -0.7185* H  27 s(100.00%)
                                           -1.0000
    72. (0.00493) BD*( 1) C  10 - H  28  
                ( 48.07%)   0.6933* C  10 s( 24.51%)p 3.08( 75.49%)
                                            0.0000 -0.4951  0.8631 -0.0869 -0.0482
[...]
   21       4.8295       -0.5730       5.4025        -6.2819      11.1115
   38     200.0155       -0.0024     200.0180         0.0027     200.0129
 Sum      214.1528      -24.2650     238.4178       -27.4199     241.5727

 Contributions to Isotropic shielding for atom    8 (   365.5023 ppm):
                         Standard Origin              Atomic Origin
 NLMO      Total    Paramagnetic  Diamagnetic   Paramagnetic  Diamagnetic
   10      27.1552        9.8600      17.2952        16.6153      10.5399
   11      -0.6709       -1.0636       0.3927        -1.8894       1.2185
   22      23.3775       11.9679      11.4095         8.9396      14.4379
   39     271.1819       -0.0066     271.1884        -0.0034     271.1853
   43      33.7358        0.8650      32.8708        -3.7315      37.4672
   44       9.5058      -28.5201      38.0259       -30.3868      39.8925
 Sum      364.2852       -6.8974     371.1826       -10.4562     374.7414

 Contributions to Isotropic shielding for atom    9 (   215.5395 ppm):
                         Standard Origin              Atomic Origin
 NLMO      Total    Paramagnetic  Diamagnetic   Paramagnetic  Diamagnetic
   10      -0.0746       -0.1576       0.0830        -1.1145       1.0399
   16       5.9340       -9.6037      15.5377        -1.9434       7.8774
   17       0.3933       -0.0419       0.4352        -0.6330       1.0263
   23      -0.8396       -6.1293       5.2897        -8.2868       7.4472
   24      -1.1796       -4.0418       2.8623        -8.7449       7.5653
   25       6.4378       -0.8478       7.2855        -4.3929      10.8306
   26       0.9095       -0.3030       1.2125        -0.1271       1.0367
   27       0.6460       -0.5529       1.1989        -0.3632       1.0092
   28       0.6036       -0.2097       0.8134        -0.4294       1.0330
   29       1.0724       -0.2552       1.3276         0.0586       1.0138
   30       0.7040       -0.6782       1.3822        -0.3379       1.0419
   31       0.6228       -0.3597       0.9825        -0.4087       1.0315
   40     199.9261       -0.0015     199.9276         0.0023     199.9238
 Sum      215.1557      -23.1824     238.3381       -26.7209     241.8766

 Contributions to Isotropic shielding for atom   10 (   224.8235 ppm):
                         Standard Origin              Atomic Origin
 NLMO      Total    Paramagnetic  Diamagnetic   Paramagnetic  Diamagnetic
   23       4.2977       -9.5101      13.8078        -3.7365       8.0342
   24      -0.3964        0.0999      -0.4963        -1.0771       0.6807
   26       6.7084       -4.3213      11.0297        -4.4816      11.1900
   27       6.9868       -4.7274      11.7142        -4.0428      11.0296
   28       5.9558        3.8004       2.1555        -5.1663      11.1221
   41     200.0743       -0.0026     200.0769         0.0017     200.0726
 Sum      223.6266      -14.6611     238.2877       -18.5026     242.1292

 Contributions to Isotropic shielding for atom   11 (   221.4460 ppm):
                         Standard Origin              Atomic Origin
 NLMO      Total    Paramagnetic  Diamagnetic   Paramagnetic  Diamagnetic
   23      -0.5402        0.0681      -0.6083        -1.2248       0.6846
   24       4.5774      -11.2898      15.8672        -3.3406       7.9180
   25       0.3269        0.1754       0.1515        -0.7156       1.0425
   28      -0.0894       -0.5163       0.4269        -1.0113       0.9218
   29       6.1818       -3.9464      10.1282        -4.9733      11.1551
   30       5.6657       -4.5935      10.2592        -5.4737      11.1394
   31       4.9594        2.9631       1.9963        -6.1434      11.1028
   42     200.0744       -0.0038     200.0782         0.0023     200.0721
 Sum      221.1559      -17.1433     238.2992       -22.8805     244.0363

 Contributions to Isotropic shielding for atom   12 (    32.5937 ppm):
                         Standard Origin              Atomic Origin
 NLMO      Total    Paramagnetic  Diamagnetic   Paramagnetic  Diamagnetic
    1       1.6562       -1.2979       2.9540         0.7667       0.8895
    2      26.3206        0.2804      26.0402         0.4368      25.8838
    3       1.9485        1.7477       0.2008         0.1220       1.8265
    4       1.9395        1.8499       0.0896         0.1145       1.8250
 Sum       31.8649        2.5802      29.2847         1.4400      30.4249

 Contributions to Isotropic shielding for atom   13 (    32.3868 ppm):
                         Standard Origin              Atomic Origin
 NLMO      Total    Paramagnetic  Diamagnetic   Paramagnetic  Diamagnetic
    1       1.4637       -0.6841       2.1478         0.4688       0.9950
    2       1.9245        1.5545       0.3699         0.0808       1.8437
    3      26.3331        0.1588      26.1743         0.4345      25.8986
    4       1.8974        2.3087      -0.4114         0.0582       1.8392
    6      -0.1401        0.7110      -0.8511        -1.0340       0.8939
 Sum       31.4786        4.0490      27.4296         0.0082      31.4704

 Contributions to Isotropic shielding for atom   14 (    32.4382 ppm):
                         Standard Origin              Atomic Origin
 NLMO      Total    Paramagnetic  Diamagnetic   Paramagnetic  Diamagnetic
    1       1.4368       -0.5971       2.0339         0.4396       0.9972
    2       1.9189        1.6300       0.2890         0.0756       1.8433
    3       1.9048        2.2853      -0.3805         0.0645       1.8402
    4      26.3565        0.1403      26.2162         0.4367      25.9198
    5      -0.1555        0.7551      -0.9106        -1.0543       0.8987
 Sum       31.4614        4.2135      27.2479        -0.0378      31.4992

 Contributions to Isotropic shielding for atom   15 (    32.8660 ppm):
                         Standard Origin              Atomic Origin
 NLMO      Total    Paramagnetic  Diamagnetic   Paramagnetic  Diamagnetic
    1       0.7863        2.2134      -1.4270        -0.1609       0.9472
    3       0.2622       -0.9554       1.2175        -0.6968       0.9590
    4       0.2633       -0.9384       1.2017        -0.6947       0.9580
    5       1.5093        0.2913       1.2180         0.6453       0.8640
    6       1.5192        0.1601       1.3591         0.6592       0.8600
    7      26.4700        0.0729      26.3971         0.3775      26.0925
 Sum       30.8104        0.8439      29.9665         0.1296      30.6807

 Contributions to Isotropic shielding for atom   16 (    32.2054 ppm):
                         Standard Origin              Atomic Origin
 NLMO      Total    Paramagnetic  Diamagnetic   Paramagnetic  Diamagnetic
    8       1.1216       -0.0551       1.1767         0.2467       0.8749
    9       0.8582        0.4244       0.4338        -0.2407       1.0989
   10       0.5724        0.9776      -0.4053        -0.9115       1.4839
   11      26.7778        0.4044      26.3734         0.7012      26.0766
   22       0.1760       -1.0189       1.1949        -0.8548       1.0309
   23       0.0248       -0.6919       0.7167        -0.9875       1.0123
   27      -0.3803       -1.4315       1.0512        -0.8975       0.5172
 Sum       29.1505       -1.3910      30.5415        -2.9442      32.0947

 Contributions to Isotropic shielding for atom   17 (    32.4834 ppm):
                         Standard Origin              Atomic Origin
 NLMO      Total    Paramagnetic  Diamagnetic   Paramagnetic  Diamagnetic
   12       1.2657        0.4899       0.7757         0.3194       0.9463
   13       1.0321        1.2986      -0.2664        -0.0364       1.0686
   14      26.4066        0.0512      26.3554         0.4493      25.9573
   15       2.0863        1.2443       0.8421         0.3439       1.7424
   18       0.2055       -0.3901       0.5956        -0.8076       1.0131
   29      -0.3129       -1.6035       1.2906        -1.0085       0.6956
 Sum       30.6833        1.0904      29.5930        -0.7399      31.4233

 Contributions to Isotropic shielding for atom   18 (    32.9697 ppm):
                         Standard Origin              Atomic Origin
 NLMO      Total    Paramagnetic  Diamagnetic   Paramagnetic  Diamagnetic
   12       1.3579        0.1165       1.2413         0.4422       0.9157
   13       1.1609        0.9243       0.2366         0.1995       0.9614
   14       2.0678        1.4487       0.6191         0.3315       1.7363
   15      26.4762        0.1698      26.3064         0.4014      26.0747
   26      -0.3334       -1.4089       1.0755        -0.9142       0.5808
 Sum       30.7293        1.2505      29.4788         0.4605      30.2688

 Contributions to Isotropic shielding for atom   19 (    32.4244 ppm):
                         Standard Origin              Atomic Origin
 NLMO      Total    Paramagnetic  Diamagnetic   Paramagnetic  Diamagnetic
    8       1.2905        0.6783       0.6122         0.3629       0.9276
   10       0.0665       -0.4352       0.5017        -1.2382       1.3047
   12       1.2063        0.6566       0.5496         0.2272       0.9791
   16       1.0332        1.2470      -0.2138        -0.1002       1.1334
   17      26.3883        0.0799      26.3083         0.4287      25.9596
   30      -0.1413       -1.5042       1.3628        -1.0197       0.8783
 Sum       29.8434        0.7224      29.1209        -1.3393      31.1827

 Contributions to Isotropic shielding for atom   20 (    32.7578 ppm):
                         Standard Origin              Atomic Origin
 NLMO      Total    Paramagnetic  Diamagnetic   Paramagnetic  Diamagnetic
    2      -0.0434       -1.3385       1.2951        -0.9397       0.8963
    5       1.2089        0.7032       0.5057         0.3753       0.8336
   13       1.3656        0.0084       1.3571         0.4419       0.9236
   18      26.4486        0.1817      26.2669         0.4417      26.0069
   19       1.9556        1.8847       0.0709         0.2076       1.7480
 Sum       30.9353        1.4395      29.4957         0.5268      30.4085

 Contributions to Isotropic shielding for atom   21 (    32.4402 ppm):
                         Standard Origin              Atomic Origin
 NLMO      Total    Paramagnetic  Diamagnetic   Paramagnetic  Diamagnetic
    4      -0.0803       -1.4604       1.3800        -0.9631       0.8828
    5       0.9893        1.2318      -0.2426         0.0745       0.9148
   13       1.2128        0.6346       0.5782         0.2163       0.9965
   15       0.1819        0.1347       0.0472        -0.8319       1.0137
   18       1.9920        1.5935       0.3985         0.2422       1.7497
   19      26.4738        0.0186      26.4552         0.4842      25.9896
 Sum       30.7694        2.1528      28.6166        -0.7778      31.5472

 Contributions to Isotropic shielding for atom   22 (    32.3615 ppm):
                         Standard Origin              Atomic Origin
 NLMO      Total    Paramagnetic  Diamagnetic   Paramagnetic  Diamagnetic
    2      -0.0422       -1.3716       1.3294        -0.9378       0.8956
    6       1.1443        0.7446       0.3997         0.3015       0.8428
    9       1.3637        0.1543       1.2094         0.5490       0.8146
   10       0.0730       -0.1839       0.2569        -1.5298       1.6028
   20      26.2275        0.1841      26.0434         0.4317      25.7958
   21       1.9668        1.7520       0.2148         0.1302       1.8367
 Sum       30.7330        1.2794      29.4536        -1.0552      31.7882

 Contributions to Isotropic shielding for atom   23 (    31.9355 ppm):
                         Standard Origin              Atomic Origin
 NLMO      Total    Paramagnetic  Diamagnetic   Paramagnetic  Diamagnetic
    3      -0.0821       -1.4916       1.4095        -0.9655       0.8834
    6       0.9834        1.2271      -0.2437         0.0538       0.9296
    9       1.1949        0.6395       0.5554         0.2842       0.9107
   10       0.0187        0.1148      -0.0960        -1.5145       1.5332
   20       1.9821        1.5453       0.4368         0.1275       1.8546
   21      26.2772        0.0406      26.2366         0.4666      25.8105
 Sum       30.3742        2.0756      28.2985        -1.5480      31.9222

 Contributions to Isotropic shielding for atom   24 (    34.5185 ppm):
                         Standard Origin              Atomic Origin
 NLMO      Total    Paramagnetic  Diamagnetic   Paramagnetic  Diamagnetic
   10       1.5639        1.4574       0.1066         0.8259       0.7380
   11       0.0453        0.2141      -0.1688        -1.0279       1.0732
   16      -0.0336       -0.0901       0.0565        -1.0928       1.0592
   22      22.9652       -0.4828      23.4480        -0.2172      23.1824
   25      -0.3557       -1.0636       0.7079        -0.8542       0.4985
   43       3.9314        1.2753       2.6561         1.9939       1.9375
   44       5.3688        2.3585       3.0103         2.1634       3.2055
 Sum       33.4853        3.6688      29.8165         1.7910      31.6943

 Contributions to Isotropic shielding for atom   25 (    32.5863 ppm):
                         Standard Origin              Atomic Origin
 NLMO      Total    Paramagnetic  Diamagnetic   Paramagnetic  Diamagnetic
   10      -0.0576       -0.1224       0.0648        -1.2097       1.1521
   16       1.6406       -0.1789       1.8195         0.5757       1.0649
   23       0.9629        1.5375      -0.5746        -0.0459       1.0088
   24       0.8665        2.0199      -1.1534        -0.1958       1.0623
   25      26.5367       -0.1072      26.6439         0.3967      26.1400
   31       0.2074       -0.6905       0.8979        -0.8087       1.0161
 Sum       30.1564        2.4584      27.6981        -1.2877      31.4441

 Contributions to Isotropic shielding for atom   26 (    32.7885 ppm):
                         Standard Origin              Atomic Origin
 NLMO      Total    Paramagnetic  Diamagnetic   Paramagnetic  Diamagnetic
   12      -0.0762        0.0838      -0.1600        -1.0516       0.9755
   23       1.4900       -0.6080       2.0980         0.5459       0.9441
   26      26.2399        0.2605      25.9794         0.3873      25.8526
   27       2.1184        0.4412       1.6772         0.3122       1.8062
   28       1.9612        2.1199      -0.1587         0.1151       1.8461
 Sum       31.7333        2.2974      29.4358         0.3089      31.4244

 Contributions to Isotropic shielding for atom   27 (    32.9254 ppm):
                         Standard Origin              Atomic Origin
 NLMO      Total    Paramagnetic  Diamagnetic   Paramagnetic  Diamagnetic
    8      -0.1165        0.0739      -0.1905        -1.0374       0.9209
   10      -0.1079        0.1517      -0.2596        -1.0238       0.9159
   23       1.5251       -0.7783       2.3034         0.5049       1.0202
   26       2.1086        0.4514       1.6572         0.2682       1.8404
   27      26.4199        0.2657      26.1542         0.3589      26.0611
   28       1.9609        1.9719      -0.0110         0.0883       1.8726
 Sum       31.7901        2.1363      29.6538        -0.8409      32.6311

 Contributions to Isotropic shielding for atom   28 (    32.6875 ppm):
                         Standard Origin              Atomic Origin
 NLMO      Total    Paramagnetic  Diamagnetic   Paramagnetic  Diamagnetic
   23       1.1813        0.8528       0.3285         0.1484       1.0329
   24      -0.1592        0.6231      -0.7823        -1.1509       0.9917
   26       2.0066        1.7336       0.2729         0.1329       1.8736
   27       2.0323        1.6109       0.4214         0.1748       1.8575
   28      26.2759       -0.0473      26.3231         0.4028      25.8731
 Sum       31.3369        4.7732      26.5637        -0.2920      31.6289

 Contributions to Isotropic shielding for atom   29 (    32.5570 ppm):
                         Standard Origin              Atomic Origin
 NLMO      Total    Paramagnetic  Diamagnetic   Paramagnetic  Diamagnetic
   12      -0.0896        0.2185      -0.3081        -1.1030       1.0134
   23      -0.1607        0.3419      -0.5026        -1.0785       0.9178
   24       1.5050       -0.9752       2.4803         0.5998       0.9052
   29      26.3087        0.2487      26.0601         0.4113      25.8975
   30       2.0273        0.7431       1.2842         0.2093       1.8181
   31       1.8909        2.1874      -0.2965         0.0387       1.8522
 Sum       31.4817        2.7644      28.7173        -0.9225      32.4041

 Contributions to Isotropic shielding for atom   30 (    32.5002 ppm):
                         Standard Origin              Atomic Origin
 NLMO      Total    Paramagnetic  Diamagnetic   Paramagnetic  Diamagnetic
   24       1.5797       -0.9277       2.5074         0.5739       1.0058
   29       2.0419        0.7839       1.2580         0.2185       1.8234
   30      26.3053        0.2982      26.0071         0.4182      25.8871
   31       1.8978        2.1831      -0.2852         0.0579       1.8400
 Sum       31.8248        2.3376      29.4872         1.2684      30.5563

 Contributions to Isotropic shielding for atom   31 (    32.4591 ppm):
                         Standard Origin              Atomic Origin
 NLMO      Total    Paramagnetic  Diamagnetic   Paramagnetic  Diamagnetic
   23      -0.1661        0.7548      -0.9210        -1.0838       0.9177
   24       1.2242        0.3795       0.8447         0.2097       1.0145
   29       1.9455        1.8523       0.0932         0.0799       1.8657
   30       1.9476        1.8121       0.1355         0.0922       1.8555
   31      26.3553       -0.0036      26.3589         0.4437      25.9116
 Sum       31.3065        4.7952      26.5113        -0.2584      31.5649
 
 1\1\GINC-COMPUTE-11-0\SP\RHF\STO-3G\C10H20O1\YTSAI.IQUIR\03-Aug-2021\0
 \\# rhf/STO-3G nmr pop=nbo\\comment\\0,1\C,0,-1.298828718,-1.703888479
 ,-3.04967879\C,0,-1.055082098,-1.148705398,-1.647777718\C,0,0.51103852
 9,-1.171344652,0.346409947\C,0,-0.68100201,0.960702319,-0.293004377\C,
 0,0.604512667,0.3719231,0.319340789\C,0,-0.974166245,0.380537245,-1.67
 7035505\C,0,0.220826756,-1.740780372,-1.044578289\O,0,1.737441557,-1.7
 44057146,0.791849254\C,0,0.972121963,0.989285309,1.702889587\C,0,-0.05
 4254617,0.711026428,2.804211777\C,0,1.222899459,2.49919691,1.607436213
 \H,0,-0.479713852,-1.44530235,-3.72930712\H,0,-1.386560735,-2.79517758
 6,-3.025034316\H,0,-2.227001808,-1.30260949,-3.470011754\H,0,-1.905487
 493,-1.439990398,-1.017016868\H,0,-0.282056085,-1.502344243,1.02667485
 5\H,0,-0.597964342,2.048085176,-0.391185314\H,0,-1.538108608,0.7617324
 8,0.360886665\H,0,1.438594544,0.628576203,-0.351201672\H,0,-0.19028754
 7,0.701407976,-2.375167528\H,0,-1.918242629,0.796797033,-2.048703961\H
 ,0,1.079157938,-1.552666566,-1.703994055\H,0,0.137307887,-2.833276819,
 -0.978313517\H,0,1.798545733,-1.602702218,1.751397074\H,0,1.922789801,
 0.54476901,2.024305566\H,0,-1.028992903,1.151170078,2.573001181\H,0,-0
 .190257718,-0.361878912,2.966037469\H,0,0.281503383,1.138991446,3.7555
 29894\H,0,0.299537164,3.056698972,1.422104583\H,0,1.932486175,2.728633
 418,0.805790998\H,0,1.649243855,2.875191527,2.544144933\\Version=EM64L
 -G09RevC.01\State=1-A\HF=-459.62263\RMSD=8.735e-09\Dipole=-0.3751664,0
 .2950233,0.2821913\Quadrupole=-1.0736468,-1.1868202,2.260467,1.8342729
 ,0.6245851,-0.7029664\PG=C01 [X(C10H20O1)]\\@


 O WAD SOME POWER THE GIFTIE GIE US       
 TO SEE OURSELS AS OTHERS SEE US.....     
 IT WOULD FRAE MONIE A BLUNDER FREE US,   
                     AND FOOLISH NOTION...
 WHAT AIRS IN DRESS AND GAIT WAD LEA'E US,
                     AND EV'N DEVOTION....
                                          
              (ROBERT BURNS 'TO A LOUSE') 
 Job cpu time:  0 days  0 hours  0 minutes 54.1 seconds.
 File lengths (MBytes):  RWF=      5 Int=      0 D2E=      0 Chk=      1 Scr=      1
 Normal termination of Gaussian 09 at Tue Aug  3 16:32:03 2021.
