 Entering Gaussian System, Link 0=g09
 Input=/home/ytsai.iquir/menthol/01_menthol_M0019_MMFF_NMR_rhf_STO-3G_nbo.gjc
 Output=/home/ytsai.iquir/menthol/01_menthol_M0019_MMFF_NMR_rhf_STO-3G_nbo.log
 Initial command:
 /share/apps/Gaussian09/EM64T.SSE4.2-enabled/g09/l1.exe /tmp/Gau-30904.inp -scrdir=/tmp/
 Entering Link 1 = /share/apps/Gaussian09/EM64T.SSE4.2-enabled/g09/l1.exe PID=     30905.
  
 Copyright (c) 1988,1990,1992,1993,1995,1998,2003,2009,2011,
            Gaussian, Inc.  All Rights Reserved.
  
 This is part of the Gaussian(R) 09 program.  It is based on
 the Gaussian(R) 03 system (copyright 2003, Gaussian, Inc.),
 the Gaussian(R) 98 system (copyright 1998, Gaussian, Inc.),
 the Gaussian(R) 94 system (copyright 1995, Gaussian, Inc.),
 the Gaussian 92(TM) system (copyright 1992, Gaussian, Inc.),
 the Gaussian 90(TM) system (copyright 1990, Gaussian, Inc.),
 the Gaussian 88(TM) system (copyright 1988, Gaussian, Inc.),
 the Gaussian 86(TM) system (copyright 1986, Carnegie Mellon
 University), and the Gaussian 82(TM) system (copyright 1983,
 Carnegie Mellon University). Gaussian is a federally registered
 trademark of Gaussian, Inc.
  
 This software contains proprietary and confidential information,
 including trade secrets, belonging to Gaussian, Inc.
  
 This software is provided under written license and may be
 used, copied, transmitted, or stored only in accord with that
 written license.
  
 The following legend is applicable only to US Government
 contracts under FAR:
  
                    RESTRICTED RIGHTS LEGEND
  
 Use, reproduction and disclosure by the US Government is
 subject to restrictions as set forth in subparagraphs (a)
 and (c) of the Commercial Computer Software - Restricted
 Rights clause in FAR 52.227-19.
  
 Gaussian, Inc.
 340 Quinnipiac St., Bldg. 40, Wallingford CT 06492
  
  
 ---------------------------------------------------------------
 Warning -- This program may not be used in any manner that
 competes with the business of Gaussian, Inc. or will provide
 assistance to any competitor of Gaussian, Inc.  The licensee
 of this program is prohibited from giving any competitor of
 Gaussian, Inc. access to this program.  By using this program,
 the user acknowledges that Gaussian, Inc. is engaged in the
 business of creating and licensing software in the field of
 computational chemistry and represents and warrants to the
 licensee that it is not a competitor of Gaussian, Inc. and that
 it will not use this program in any manner prohibited above.
 ---------------------------------------------------------------
  

 Cite this work as:
 Gaussian 09, Revision C.01,
 M. J. Frisch, G. W. Trucks, H. B. Schlegel, G. E. Scuseria, 
 M. A. Robb, J. R. Cheeseman, G. Scalmani, V. Barone, B. Mennucci, 
 G. A. Petersson, H. Nakatsuji, M. Caricato, X. Li, H. P. Hratchian, 
 A. F. Izmaylov, J. Bloino, G. Zheng, J. L. Sonnenberg, M. Hada, 
 M. Ehara, K. Toyota, R. Fukuda, J. Hasegawa, M. Ishida, T. Nakajima, 
 Y. Honda, O. Kitao, H. Nakai, T. Vreven, J. A. Montgomery, Jr., 
 J. E. Peralta, F. Ogliaro, M. Bearpark, J. J. Heyd, E. Brothers, 
 K. N. Kudin, V. N. Staroverov, T. Keith, R. Kobayashi, J. Normand, 
 K. Raghavachari, A. Rendell, J. C. Burant, S. S. Iyengar, J. Tomasi, 
 M. Cossi, N. Rega, J. M. Millam, M. Klene, J. E. Knox, J. B. Cross, 
 V. Bakken, C. Adamo, J. Jaramillo, R. Gomperts, R. E. Stratmann, 
 O. Yazyev, A. J. Austin, R. Cammi, C. Pomelli, J. W. Ochterski, 
 R. L. Martin, K. Morokuma, V. G. Zakrzewski, G. A. Voth, 
 P. Salvador, J. J. Dannenberg, S. Dapprich, A. D. Daniels, 
 O. Farkas, J. B. Foresman, J. V. Ortiz, J. Cioslowski, 
 and D. J. Fox, Gaussian, Inc., Wallingford CT, 2010.
 
 ******************************************
 Gaussian 09:  EM64L-G09RevC.01 23-Sep-2011
                 3-Aug-2021 
 ******************************************
 %nprocshared=4
 Will use up to    4 processors via shared memory.
 ------------------------
 # rhf/STO-3G nmr pop=nbo
 ------------------------
 1/38=1/1;
 2/12=2,17=6,18=5,40=1/2;
 3/6=3,11=1,16=1,25=1,30=1,116=1/1,2,8,3;
 4//1;
 5/5=2,38=5/2;
 8/6=1,10=90,11=11/1;
 10/13=100,45=16/2;
 6/7=2,8=2,9=2,10=2,28=1,64=1/1,7;
 99/9=1/99;
 -------
 comment
 -------
 Charge =  0 Multiplicity = 1
 Symbolic Z-Matrix:
 6                     0.47085   0.08005  -3.71865 
 6                    -0.10121   0.01766  -2.30378 
 6                     0.00429  -1.20859  -0.07746 
 6                    -0.44112   1.29077  -0.15409 
 6                     0.11821   0.12872   0.69832 
 6                     0.12411   1.33755  -1.57004 
 6                     0.5338   -1.1217   -1.51222 
 8                     0.76758  -2.22161   0.57594 
 6                    -0.59239   0.09359   2.09748 
 6                    -0.43862   1.42205   2.85509 
 6                    -0.10277  -1.03222   3.01561 
 1                    -0.00079   0.88466  -4.29258 
 1                     1.5509    0.26197  -3.70543 
 1                     0.29247  -0.86013  -4.25107 
 1                    -1.18092  -0.16533  -2.38235 
 1                    -1.04371  -1.53224  -0.0914 
 1                    -0.21396   2.25225   0.3185 
 1                    -1.53451   1.21157  -0.2086 
 1                     1.18575   0.3195    0.87965 
 1                     1.19631   1.56786  -1.52481 
 1                    -0.35295   2.15775  -2.12 
 1                     1.62628  -1.00517  -1.48908 
 1                     0.35535  -2.07821  -2.02072 
 1                     0.6187   -3.05631   0.09979 
 1                    -1.66656  -0.06603   1.93331 
 1                     0.61575   1.70184   2.95151 
 1                    -0.96958   2.23638   2.35384 
 1                    -0.86261   1.35146   3.86302 
 1                     0.98902  -1.03222   3.09811 
 1                    -0.43274  -2.01116   2.65675 
 1                    -0.51489  -0.92469   4.02535 
 
                          Input orientation:                          
 ---------------------------------------------------------------------
 Center     Atomic      Atomic             Coordinates (Angstroms)
 Number     Number       Type             X           Y           Z
 ---------------------------------------------------------------------
      1          6           0        0.470848    0.080054   -3.718649
      2          6           0       -0.101209    0.017658   -2.303775
      3          6           0        0.004288   -1.208590   -0.077464
      4          6           0       -0.441120    1.290771   -0.154093
      5          6           0        0.118215    0.128715    0.698319
      6          6           0        0.124107    1.337551   -1.570040
      7          6           0        0.533796   -1.121698   -1.512220
      8          8           0        0.767577   -2.221610    0.575936
      9          6           0       -0.592392    0.093589    2.097481
     10          6           0       -0.438624    1.422047    2.855095
     11          6           0       -0.102771   -1.032224    3.015607
     12          1           0       -0.000794    0.884657   -4.292584
     13          1           0        1.550901    0.261971   -3.705428
     14          1           0        0.292466   -0.860128   -4.251068
     15          1           0       -1.180923   -0.165330   -2.382353
     16          1           0       -1.043706   -1.532241   -0.091403
     17          1           0       -0.213956    2.252247    0.318497
     18          1           0       -1.534514    1.211575   -0.208605
     19          1           0        1.185750    0.319497    0.879650
     20          1           0        1.196310    1.567864   -1.524807
     21          1           0       -0.352955    2.157746   -2.120001
     22          1           0        1.626278   -1.005175   -1.489075
     23          1           0        0.355348   -2.078211   -2.020717
     24          1           0        0.618699   -3.056310    0.099791
     25          1           0       -1.666561   -0.066034    1.933314
     26          1           0        0.615746    1.701836    2.951513
     27          1           0       -0.969582    2.236376    2.353841
     28          1           0       -0.862607    1.351462    3.863023
     29          1           0        0.989023   -1.032219    3.098115
     30          1           0       -0.432741   -2.011158    2.656747
     31          1           0       -0.514893   -0.924687    4.025352
 ---------------------------------------------------------------------
                    Distance matrix (angstroms):
                    1          2          3          4          5
     1  C    0.000000
     2  C    1.527420   0.000000
     3  C    3.890567   2.543870   0.000000
     4  C    3.873446   2.521406   2.539894   0.000000
     5  C    4.431289   3.012150   1.550226   1.545909   0.000000
     6  C    2.513573   1.526844   2.953807   1.525311   2.570364
     7  C    2.513265   1.525753   1.531814   2.935127   2.573465
     8  O    4.881513   3.749913   1.426798   3.785592   2.441450
     9  C    5.912532   4.429231   2.604243   2.554548   1.569666
    10  C    6.770686   5.357247   3.964381   3.012051   2.575744
    11  C    6.849555   5.421999   3.099944   3.944335   2.601237
    12  H    1.095095   2.171896   4.706267   4.181617   5.049230
    13  H    1.095346   2.180318   4.209119   4.199827   4.632853
    14  H    1.095094   2.171967   4.198029   4.685053   5.050208
    15  H    2.138749   1.097926   2.793856   2.762731   3.356302
    16  H    4.248563   2.860958   1.096921   2.887289   2.175430
    17  H    4.635292   3.447087   3.490244   1.095163   2.182656
    18  H    4.197884   2.805270   2.870942   1.097614   2.174077
    19  H    4.659697   3.446965   2.155683   2.158403   1.099505
    20  H    2.748239   2.166446   3.350286   2.153326   2.859323
    21  H    2.747932   2.162666   3.953707   2.150399   3.504553
    22  H    2.735643   2.166595   2.159833   3.365661   2.888711
    23  H    2.748531   2.163616   2.157711   3.933025   3.509973
    24  H    4.943595   3.967956   1.955247   4.481605   3.279193
    25  H    6.044381   4.517770   2.853137   2.774868   2.179120
    26  H    6.866021   5.564938   4.244898   3.306165   2.792692
    27  H    6.603007   5.231651   4.327523   2.731881   2.892454
    28  H    7.802328   6.355167   4.778368   4.039623   3.531638
    29  H    6.926321   5.609925   3.329431   4.244814   2.804478
    30  H    6.770179   5.369617   2.882883   4.336315   2.952634
    31  H    7.870879   6.412254   4.145268   4.730904   3.546777
                    6          7          8          9         10
     6  C    0.000000
     7  C    2.493811   0.000000
     8  O    4.205580   2.371678   0.000000
     9  C    3.938467   3.971796   3.086221   0.000000
    10  C    4.461572   5.146812   4.463824   1.537018   0.000000
    11  C    5.166765   4.573230   2.850288   1.533015   2.482339
    12  H    2.762781   3.470111   5.825958   6.465966   7.181211
    13  H    2.784330   2.785535   5.011172   6.188361   6.953016
    14  H    3.470742   2.761874   5.037790   6.480481   7.499358
    15  H    2.149793   2.147564   4.095903   4.525740   5.522828
    16  H    3.433055   2.162355   2.049712   2.763734   4.216135
    17  H    2.125448   3.910775   4.587492   2.822730   2.678438
    18  H    2.149512   3.379568   4.207362   2.730480   3.260602
    19  H    2.857360   2.867600   2.593132   2.167011   2.785065
    20  H    1.097592   2.769987   4.353969   4.300455   4.677372
    21  H    1.096706   3.451156   5.263310   4.701620   5.029928
    22  H    2.784141   1.098923   2.545850   4.358115   5.387675
    23  H    3.453117   1.097876   2.633078   4.751261   6.054398
    24  H    4.726413   2.519625   0.972421   3.921654   5.363330
    25  H    4.177323   4.222285   3.523352   1.098303   2.138198
    26  H    4.562768   5.282421   4.589101   2.185275   1.095114
    27  H    4.171437   5.336968   5.104146   2.190783   1.093756
    28  H    5.521953   6.079448   5.121453   2.184582   1.095747
    29  H    5.306181   4.633619   2.797334   2.183938   2.849677
    30  H    5.421223   4.370997   2.411395   2.183627   3.438935
    31  H    6.069139   5.639438   3.901950   2.181645   2.623448
                   11         12         13         14         15
    11  C    0.000000
    12  H    7.556089   0.000000
    13  H    7.041440   1.772074   0.000000
    14  H    7.279450   1.769746   1.772142   0.000000
    15  H    5.572422   2.478742   3.065286   2.479056   0.000000
    16  H    3.284644   4.957720   4.797120   4.420397   2.671278
    17  H    4.251412   4.814334   4.823680   5.551961   3.751573
    18  H    4.180916   4.374707   4.759129   4.896052   2.597321
    19  H    2.837207   5.336600   4.599955   5.339826   4.059171
    20  H    5.391050   3.091993   2.566359   3.760928   3.064406
    21  H    6.050865   2.542614   3.119648   3.750410   2.480129
    22  H    4.825195   3.752132   2.554126   3.070618   3.063277
    23  H    5.164157   3.750574   3.121546   2.542075   2.479924
    24  H    3.622075   5.933629   5.134168   4.884631   4.213958
    25  H    2.133147   6.514629   6.500388   6.535667   4.344040
    26  H    2.827624   7.316068   6.874779   7.651493   5.929963
    27  H    3.445727   6.851326   6.853163   7.403103   5.314545
    28  H    2.641481   8.214289   8.018319   8.489039   6.434804
    29  H    1.094908   7.699129   6.948296   7.384124   5.957826
    30  H    1.093605   7.540923   7.041251   7.040504   5.418430
    31  H    1.095899   8.527959   8.089537   8.315956   6.486825
                   16         17         18         19         20
    16  H    0.000000
    17  H    3.896005   0.000000
    18  H    2.789831   1.762018   0.000000
    19  H    3.056527   2.451447   3.062669   0.000000
    20  H    4.084479   2.419711   3.052332   2.709234   0.000000
    21  H    4.267125   2.444285   2.438188   3.839881   1.761374
    22  H    3.059429   4.155066   4.067455   2.749487   2.608961
    23  H    2.444931   4.954684   4.204524   3.853661   3.774521
    24  H    2.263389   5.377910   4.790227   3.510812   4.935174
    25  H    2.576274   3.176809   2.497506   3.065047   4.777473
    26  H    4.740504   2.814983   3.853611   2.555070   4.515799
    27  H    4.493016   2.171140   2.817001   3.239309   4.492428
    28  H    4.897553   3.714272   4.129065   3.763141   5.771886
    29  H    3.815106   4.467790   4.726229   2.605268   5.307994
    30  H    2.855690   4.867432   4.450860   3.348065   5.740087
    31  H    4.194811   4.891241   4.850735   3.786240   6.320228
                   21         22         23         24         25
    21  H    0.000000
    22  H    3.784111   0.000000
    23  H    4.295914   1.746228   0.000000
    24  H    5.749606   2.783320   2.350018   0.000000
    25  H    4.806258   4.841231   4.875585   4.186402   0.000000
    26  H    5.183290   5.297915   6.251371   5.547277   3.061212
    27  H    4.516822   5.658104   6.285528   5.967906   2.442071
    28  H    6.058582   6.355567   6.918414   5.982025   2.525750
    29  H    6.261431   4.631321   5.262897   3.636486   3.056534
    30  H    6.340619   4.737025   4.743864   2.955654   2.414368
    31  H    6.876989   5.916080   6.216340   4.608565   2.537764
                   26         27         28         29         30
    26  H    0.000000
    27  H    1.776572   0.000000
    28  H    1.771761   1.752753   0.000000
    29  H    2.763310   3.882497   3.113768   0.000000
    30  H    3.869436   4.292027   3.598208   1.781724   0.000000
    31  H    3.054521   3.604581   2.308269   1.770056   1.749357
                   31
    31  H    0.000000
 Stoichiometry    C10H20O
 Framework group  C1[X(C10H20O)]
 Deg. of freedom    87
 Full point group                 C1      NOp   1
 Largest Abelian subgroup         C1      NOp   1
 Largest concise Abelian subgroup C1      NOp   1
                         Standard orientation:                         
 ---------------------------------------------------------------------
 Center     Atomic      Atomic             Coordinates (Angstroms)
 Number     Number       Type             X           Y           Z
 ---------------------------------------------------------------------
      1          6           0       -3.753459   -0.144380    0.070140
      2          6           0       -2.285224   -0.194280   -0.347960
      3          6           0       -0.068780    1.052639   -0.285949
      4          6           0       -0.126348   -1.483601   -0.162516
      5          6           0        0.675133   -0.214627    0.207846
      6          6           0       -1.594745   -1.420040    0.245337
      7          6           0       -1.552547    1.068838    0.094351
      8          8           0        0.511463    2.219792    0.294417
      9          6           0        2.142143   -0.322491   -0.339966
     10          6           0        2.863862   -1.572400    0.188497
     11          6           0        3.015947    0.896318   -0.021993
     12          1           0       -4.283266   -1.041800   -0.266278
     13          1           0       -3.857070   -0.078254    1.158568
     14          1           0       -4.253112    0.724597   -0.370833
     15          1           0       -2.246620   -0.260123   -1.443230
     16          1           0        0.032338    1.131805   -1.375327
     17          1           0        0.308395   -2.363106    0.324157
     18          1           0       -0.063553   -1.653335   -1.245107
     19          1           0        0.739898   -0.157803    1.303969
     20          1           0       -1.666249   -1.402421    1.340456
     21          1           0       -2.100318   -2.333563   -0.090276
     22          1           0       -1.646861    1.201600    1.181140
     23          1           0       -2.028220    1.954018   -0.347829
     24          1           0        0.063420    2.993368   -0.088258
     25          1           0        2.094790   -0.410945   -1.433676
     26          1           0        2.844577   -1.606342    1.282915
     27          1           0        2.412508   -2.491720   -0.195473
     28          1           0        3.911851   -1.586192   -0.131178
     29          1           0        2.982066    1.143201    1.044180
     30          1           0        2.705400    1.771140   -0.600110
     31          1           0        4.062440    0.711687   -0.289869
 ---------------------------------------------------------------------
 Rotational constants (GHZ):      1.8519997      0.6950286      0.5319441
 Standard basis: STO-3G (5D, 7F)
 There are    75 symmetry adapted basis functions of A   symmetry.
 Integral buffers will be    131072 words long.
 Raffenetti 1 integral format.
 Two-electron integral symmetry is turned on.
    75 basis functions,   225 primitive gaussians,    75 cartesian basis functions
    44 alpha electrons       44 beta electrons
       nuclear repulsion energy       686.8810745357 Hartrees.
 NAtoms=   31 NActive=   31 NUniq=   31 SFac= 1.00D+00 NAtFMM=   60 NAOKFM=F Big=F
 One-electron integrals computed using PRISM.
 NBasis=    75 RedAO= T  NBF=    75
 NBsUse=    75 1.00D-06 NBFU=    75
 Harris functional with IExCor=  205 diagonalized for initial guess.
 ExpMin= 1.69D-01 ExpMax= 1.31D+02 ExpMxC= 1.31D+02 IAcc=1 IRadAn=         1 AccDes= 0.00D+00
 HarFok:  IExCor=  205 AccDes= 0.00D+00 IRadAn=         1 IDoV= 1
 ScaDFX=  1.000000  1.000000  1.000000  1.000000
 FoFCou: FMM=F IPFlag=           0 FMFlag=      100000 FMFlg1=           0
         NFxFlg=           0 DoJE=T BraDBF=F KetDBF=T FulRan=T
         Omega=  0.000000  0.000000  1.000000  0.000000  0.000000 ICntrl=     500 IOpCl=  0
         NMat0=    1 NMatS0=    1 NMatT0=    0 NMatD0=    1 NMtDS0=    0 NMtDT0=    0
         I1Cent=           4 NGrid=           0.
 Petite list used in FoFCou.
 Initial guess orbital symmetries:
       Occupied  (A) (A) (A) (A) (A) (A) (A) (A) (A) (A) (A) (A)
                 (A) (A) (A) (A) (A) (A) (A) (A) (A) (A) (A) (A)
                 (A) (A) (A) (A) (A) (A) (A) (A) (A) (A) (A) (A)
                 (A) (A) (A) (A) (A) (A) (A) (A)
       Virtual   (A) (A) (A) (A) (A) (A) (A) (A) (A) (A) (A) (A)
                 (A) (A) (A) (A) (A) (A) (A) (A) (A) (A) (A) (A)
                 (A) (A) (A) (A) (A) (A) (A)
 The electronic state of the initial guess is 1-A.
 Requested convergence on RMS density matrix=1.00D-08 within 128 cycles.
 Requested convergence on MAX density matrix=1.00D-06.
 Requested convergence on             energy=1.00D-06.
 No special actions if energy rises.
 Keep R1 ints in memory in canonical form, NReq=4898789.
 SCF Done:  E(RHF) =  -459.619522556     A.U. after   10 cycles
             Convg  =    0.5432D-08             -V/T =  2.0090
 Range of M.O.s used for correlation:     1    75
 NBasis=    75 NAE=    44 NBE=    44 NFC=     0 NFV=     0
 NROrb=     75 NOA=    44 NOB=    44 NVA=    31 NVB=    31
          Differentiating once with respect to magnetic field using GIAOs.
          Electric field/nuclear overlap derivatives assumed to be zero.
          Keep R3 ints in memory in canonical form, NReq=4863575.
 FoFCou: FMM=F IPFlag=           0 FMFlag=           0 FMFlg1=           0
         NFxFlg=           0 DoJE=F BraDBF=F KetDBF=T FulRan=T
         Omega=  0.000000  0.000000  1.000000  0.000000  0.000000 ICntrl=    6100 IOpCl=  0
         NMat0=    1 NMatS0=    1 NMatT0=    0 NMatD0=    1 NMtDS0=    0 NMtDT0=    0
         I1Cent=           7 NGrid=          31.
 Symmetry not used in FoFCou.
          There are     3 degrees of freedom in the 1st order CPHF.  IDoFFX=0.
      3 vectors produced by pass  0 Test12= 4.55D-14 3.33D-08 XBig12= 8.39D+00 5.30D-01.
 AX will form     3 AO Fock derivatives at one time.
      3 vectors produced by pass  1 Test12= 4.55D-14 3.33D-08 XBig12= 1.44D-02 1.40D-02.
      3 vectors produced by pass  2 Test12= 4.55D-14 3.33D-08 XBig12= 1.01D-04 2.38D-03.
      3 vectors produced by pass  3 Test12= 4.55D-14 3.33D-08 XBig12= 2.12D-06 3.48D-04.
      3 vectors produced by pass  4 Test12= 4.55D-14 3.33D-08 XBig12= 1.77D-08 1.73D-05.
      3 vectors produced by pass  5 Test12= 4.55D-14 3.33D-08 XBig12= 2.26D-10 2.49D-06.
      3 vectors produced by pass  6 Test12= 4.55D-14 3.33D-08 XBig12= 2.10D-12 1.80D-07.
 Inverted reduced A of dimension    21 with in-core refinement.
 Calculating GIAO nuclear magnetic shielding tensors.
 SCF GIAO Magnetic shielding tensor (ppm):
      1  C    Isotropic =   221.1084   Anisotropy =    28.3772
   XX=   239.2817   YX=    -0.3795   ZX=    -2.8408
   XY=    -0.8237   YY=   212.6296   ZY=    -0.0580
   XZ=    -6.3100   YZ=     0.0662   ZZ=   211.4139
   Eigenvalues:   210.6777   212.6209   240.0266
      2  C    Isotropic =   215.7529   Anisotropy =     7.8809
   XX=   220.3473   YX=    -0.8325   ZX=     0.2778
   XY=    -2.3416   YY=   217.1810   ZY=    -0.5448
   XZ=    -1.0179   YZ=    -0.6847   ZZ=   209.7303
   Eigenvalues:   209.6560   216.5958   221.0068
      3  C    Isotropic =   187.0962   Anisotropy =    36.9174
   XX=   185.0314   YX=    10.7840   ZX=     8.0223
   XY=     7.1247   YY=   203.7887   ZY=     9.1111
   XZ=     7.2817   YZ=    12.7344   ZZ=   172.4684
   Eigenvalues:   167.5668   182.0139   211.7078
      4  C    Isotropic =   216.5087   Anisotropy =    16.8213
   XX=   225.9205   YX=     3.0489   ZX=    -1.3514
   XY=     6.0600   YY=   216.1009   ZY=     5.6390
   XZ=    -1.7805   YZ=     5.1968   ZZ=   207.5047
   Eigenvalues:   204.3334   217.4698   227.7229
      5  C    Isotropic =   208.3328   Anisotropy =    16.0499
   XX=   218.5502   YX=    -3.3942   ZX=    -0.4875
   XY=    -0.6908   YY=   205.8395   ZY=    -1.7835
   XZ=    -3.2706   YZ=     0.0881   ZZ=   200.6086
   Eigenvalues:   200.2094   205.7563   219.0327
      6  C    Isotropic =   216.0117   Anisotropy =    17.3234
   XX=   222.1079   YX=    -5.9734   ZX=    -1.4235
   XY=    -8.3145   YY=   217.6194   ZY=    -3.7434
   XZ=     1.6300   YZ=    -2.6779   ZZ=   208.3078
   Eigenvalues:   206.9402   213.5343   227.5607
      7  C    Isotropic =   213.5008   Anisotropy =    24.5755
   XX=   224.8010   YX=    10.2006   ZX=    -2.0259
   XY=     8.1582   YY=   213.2632   ZY=     2.5220
   XZ=    -1.0083   YZ=     0.7313   ZZ=   202.4383
   Eigenvalues:   201.7096   208.9083   229.8845
      8  O    Isotropic =   352.6395   Anisotropy =    84.4509
   XX=   353.7166   YX=   -41.4484   ZX=     5.1467
   XY=   -22.6957   YY=   374.3664   ZY=   -18.9447
   XZ=    19.2039   YZ=   -36.7329   ZZ=   329.8355
   Eigenvalues:   316.0538   332.9245   408.9401
      9  C    Isotropic =   211.0537   Anisotropy =    18.5842
   XX=   222.3728   YX=    -0.9005   ZX=    -3.4477
   XY=    -1.5357   YY=   207.9925   ZY=     0.1230
   XZ=    -5.5106   YZ=     0.0311   ZZ=   202.7959
   Eigenvalues:   201.8142   207.9038   223.4432
     10  C    Isotropic =   220.6865   Anisotropy =    26.2183
   XX=   222.7811   YX=    -9.2809   ZX=     2.1555
   XY=    -8.9631   YY=   229.2660   ZY=    -6.7726
   XZ=     1.0893   YZ=   -11.0694   ZZ=   210.0124
   Eigenvalues:   206.2674   217.6267   238.1654
     11  C    Isotropic =   220.5567   Anisotropy =    24.3242
   XX=   225.2589   YX=     8.7266   ZX=     0.2726
   XY=     7.7992   YY=   229.7649   ZY=     3.4562
   XZ=     1.1761   YZ=     6.8938   ZZ=   206.6463
   Eigenvalues:   205.4802   219.4171   236.7728
     12  H    Isotropic =    32.4546   Anisotropy =    13.8243
   XX=    36.8860   YX=     5.8194   ZX=     1.9802
   XY=     5.5075   YY=    33.4762   ZY=     2.3520
   XZ=     1.8703   YZ=     2.1943   ZZ=    27.0016
   Eigenvalues:    26.2805    29.4125    41.6708
     13  H    Isotropic =    32.6487   Anisotropy =    11.6242
   XX=    33.3447   YX=    -0.2425   ZX=    -4.6788
   XY=    -0.3163   YY=    27.2954   ZY=     0.6146
   XZ=    -4.5879   YZ=     0.6133   ZZ=    37.3060
   Eigenvalues:    27.2579    30.2900    40.3982
     14  H    Isotropic =    32.5120   Anisotropy =    13.6612
   XX=    36.6209   YX=    -5.4559   ZX=     2.5386
   XY=    -5.2804   YY=    33.2438   ZY=    -3.2239
   XZ=     2.4236   YZ=    -2.9705   ZZ=    27.6713
   Eigenvalues:    26.2905    29.6261    41.6195
     15  H    Isotropic =    32.9370   Anisotropy =    10.8251
   XX=    31.6871   YX=     0.0745   ZX=     1.6563
   XY=     0.1883   YY=    27.3790   ZY=     0.7478
   XZ=     1.8112   YZ=     0.8551   ZZ=    39.7450
   Eigenvalues:    27.3272    31.3301    40.1538
     16  H    Isotropic =    32.1961   Anisotropy =     7.3169
   XX=    30.9022   YX=     0.0277   ZX=    -0.1732
   XY=    -0.3592   YY=    29.6140   ZY=    -2.3266
   XZ=    -1.4323   YZ=    -2.8900   ZZ=    36.0722
   Eigenvalues:    28.6117    30.9026    37.0741
     17  H    Isotropic =    32.1977   Anisotropy =    12.4875
   XX=    34.4047   YX=    -3.1305   ZX=     1.2732
   XY=    -3.2094   YY=    37.4116   ZY=    -4.0847
   XZ=     1.0857   YZ=    -4.2410   ZZ=    24.7769
   Eigenvalues:    23.5238    32.5466    40.5227
     18  H    Isotropic =    32.8758   Anisotropy =    10.2791
   XX=    32.0607   YX=     0.4570   ZX=    -1.0470
   XY=     0.0408   YY=    30.0055   ZY=     5.2743
   XZ=    -1.2396   YZ=     5.5914   ZZ=    36.5612
   Eigenvalues:    26.8211    32.0777    39.7285
     19  H    Isotropic =    32.5005   Anisotropy =     8.2992
   XX=    31.7113   YX=    -0.3714   ZX=     1.2194
   XY=    -0.5489   YY=    28.0656   ZY=    -0.0618
   XZ=     1.5737   YZ=     0.1743   ZZ=    37.7246
   Eigenvalues:    28.0028    31.4654    38.0333
     20  H    Isotropic =    32.7589   Anisotropy =    10.9497
   XX=    31.2015   YX=    -0.0260   ZX=    -2.3715
   XY=    -0.0511   YY=    28.8772   ZY=    -3.6389
   XZ=    -2.2584   YZ=    -3.8753   ZZ=    38.1980
   Eigenvalues:    27.3628    30.8552    40.0587
     21  H    Isotropic =    32.4409   Anisotropy =    13.9787
   XX=    33.0773   YX=     4.5944   ZX=     0.9128
   XY=     4.6774   YY=    38.8853   ZY=     1.8072
   XZ=     1.1225   YZ=     2.2073   ZZ=    25.3603
   Eigenvalues:    25.0506    30.5121    41.7601
     22  H    Isotropic =    32.4345   Anisotropy =     9.8246
   XX=    31.3197   YX=     0.4732   ZX=    -2.8346
   XY=     0.3660   YY=    29.6530   ZY=     4.0329
   XZ=    -2.4383   YZ=     4.3199   ZZ=    36.3308
   Eigenvalues:    27.0442    31.2751    38.9842
     23  H    Isotropic =    32.7289   Anisotropy =    12.4479
   XX=    33.5686   YX=    -3.3223   ZX=     1.4154
   XY=    -3.5705   YY=    38.1732   ZY=    -3.4181
   XZ=     1.9914   YZ=    -3.4719   ZZ=    26.4449
   Eigenvalues:    25.4309    31.7283    41.0275
     24  H    Isotropic =    34.9373   Anisotropy =    18.9650
   XX=    31.1340   YX=    -3.4879   ZX=     3.6059
   XY=    -2.1958   YY=    46.3634   ZY=    -2.6272
   XZ=     3.1753   YZ=    -3.7406   ZZ=    27.3147
   Eigenvalues:    25.2421    31.9892    47.5807
     25  H    Isotropic =    32.6673   Anisotropy =     9.7377
   XX=    30.8271   YX=    -0.0914   ZX=    -1.1405
   XY=    -0.2886   YY=    28.2908   ZY=     1.0703
   XZ=    -1.1793   YZ=     1.0989   ZZ=    38.8839
   Eigenvalues:    28.1788    30.6639    39.1590
     26  H    Isotropic =    32.5257   Anisotropy =    11.0849
   XX=    30.3668   YX=    -2.1595   ZX=     2.4928
   XY=    -2.1724   YY=    29.7962   ZY=    -3.7265
   XZ=     2.4941   YZ=    -3.5843   ZZ=    37.4140
   Eigenvalues:    27.6837    29.9777    39.9156
     27  H    Isotropic =    32.3363   Anisotropy =    11.0298
   XX=    32.0814   YX=     0.1325   ZX=     1.2068
   XY=     0.2400   YY=    39.1689   ZY=     2.8490
   XZ=     0.7359   YZ=     2.4423   ZZ=    25.7587
   Eigenvalues:    25.1338    32.1857    39.6895
     28  H    Isotropic =    32.4972   Anisotropy =    14.2031
   XX=    40.4050   YX=    -3.4929   ZX=    -2.6321
   XY=    -3.7166   YY=    30.4556   ZY=     0.0133
   XZ=    -2.4757   YZ=     0.1135   ZZ=    26.6308
   Eigenvalues:    26.0789    29.4467    41.9659
     29  H    Isotropic =    32.2250   Anisotropy =    10.4311
   XX=    31.2099   YX=     1.7565   ZX=     2.5327
   XY=     1.8189   YY=    30.2053   ZY=     4.6506
   XZ=     2.6005   YZ=     4.4959   ZZ=    35.2598
   Eigenvalues:    27.4875    30.0083    39.1790
     30  H    Isotropic =    31.8541   Anisotropy =    10.3882
   XX=    32.1044   YX=     0.1913   ZX=     0.0154
   XY=     0.2546   YY=    36.7668   ZY=    -5.2515
   XZ=    -0.5561   YZ=    -4.5730   ZZ=    26.6912
   Eigenvalues:    24.6890    32.0939    38.7796
     31  H    Isotropic =    32.5629   Anisotropy =    14.2643
   XX=    41.4492   YX=     1.3571   ZX=    -2.7266
   XY=     1.4464   YY=    29.8709   ZY=    -0.1589
   XZ=    -2.6146   YZ=    -0.2448   ZZ=    26.3686
   Eigenvalues:    25.9093    29.7070    42.0724
 End of Minotr Frequency-dependent properties file   721 does not exist.
 End of Minotr Frequency-dependent properties file   722 does not exist.

 **********************************************************************

            Population analysis using the SCF density.

 **********************************************************************

 Orbital symmetries:
       Occupied  (A) (A) (A) (A) (A) (A) (A) (A) (A) (A) (A) (A)
                 (A) (A) (A) (A) (A) (A) (A) (A) (A) (A) (A) (A)
                 (A) (A) (A) (A) (A) (A) (A) (A) (A) (A) (A) (A)
                 (A) (A) (A) (A) (A) (A) (A) (A)
       Virtual   (A) (A) (A) (A) (A) (A) (A) (A) (A) (A) (A) (A)
                 (A) (A) (A) (A) (A) (A) (A) (A) (A) (A) (A) (A)
                 (A) (A) (A) (A) (A) (A) (A)
 The electronic state is 1-A.
 Alpha  occ. eigenvalues --  -20.23534 -11.08518 -11.04769 -11.04379 -11.04155
 Alpha  occ. eigenvalues --  -11.03695 -11.03651 -11.03609 -11.03243 -11.02529
 Alpha  occ. eigenvalues --  -11.01735  -1.27719  -1.08160  -1.03416  -0.96775
 Alpha  occ. eigenvalues --   -0.94678  -0.88027  -0.87770  -0.79204  -0.77090
 Alpha  occ. eigenvalues --   -0.72898  -0.72146  -0.61344  -0.60585  -0.58832
 Alpha  occ. eigenvalues --   -0.56938  -0.56426  -0.55446  -0.52906  -0.51024
 Alpha  occ. eigenvalues --   -0.50417  -0.49745  -0.49421  -0.47554  -0.46945
 Alpha  occ. eigenvalues --   -0.44619  -0.44292  -0.43228  -0.42029  -0.41201
 Alpha  occ. eigenvalues --   -0.39577  -0.38222  -0.36644  -0.32697
 Alpha virt. eigenvalues --    0.52988   0.54667   0.57120   0.59853   0.61320
 Alpha virt. eigenvalues --    0.62037   0.62541   0.65778   0.67489   0.68330
 Alpha virt. eigenvalues --    0.69355   0.70174   0.70790   0.72711   0.73006
 Alpha virt. eigenvalues --    0.73314   0.73872   0.74200   0.76083   0.76397
 Alpha virt. eigenvalues --    0.76693   0.77635   0.78065   0.78415   0.79137
 Alpha virt. eigenvalues --    0.80251   0.81613   0.82881   0.83794   0.84577
 Alpha virt. eigenvalues --    0.84798
          Condensed to atoms (all electrons):
              1          2          3          4          5          6
     1  C    4.739855   0.365705   0.000708   0.000768   0.000002  -0.024412
     2  C    0.365705   4.742832  -0.019589  -0.023264  -0.002936   0.365167
     3  C    0.000708  -0.019589   4.742364  -0.021105   0.357772  -0.003845
     4  C    0.000768  -0.023264  -0.021105   4.758032   0.360909   0.363279
     5  C    0.000002  -0.002936   0.357772   0.360909   4.770480  -0.019849
     6  C   -0.024412   0.365167  -0.003845   0.363279  -0.019849   4.754954
     7  C   -0.024371   0.363133   0.358778  -0.003943  -0.020585  -0.025312
     8  O   -0.000001   0.000283   0.266690   0.000204  -0.016098   0.000002
     9  C    0.000000   0.000004  -0.018766  -0.021083   0.358025   0.000594
    10  C    0.000000   0.000000   0.000547  -0.003112  -0.020496   0.000018
    11  C    0.000000   0.000000  -0.001353   0.000573  -0.019312  -0.000003
    12  H    0.382358  -0.020331  -0.000016   0.000013   0.000000  -0.002254
    13  H    0.382367  -0.020610   0.000008   0.000009   0.000001  -0.002231
    14  H    0.382208  -0.020405   0.000011  -0.000018   0.000000   0.001306
    15  H   -0.024109   0.382144  -0.001862  -0.002067   0.000069  -0.023856
    16  H   -0.000005  -0.000960   0.373801  -0.000745  -0.024660   0.000085
    17  H   -0.000017   0.001353   0.001122   0.383912  -0.020195  -0.023437
    18  H    0.000006  -0.001901  -0.001280   0.380700  -0.022772  -0.023221
    19  H   -0.000003   0.000078  -0.024029  -0.022767   0.377455  -0.001228
    20  H   -0.002347  -0.022389   0.000050  -0.022886  -0.001527   0.381580
    21  H   -0.002221  -0.021664   0.000020  -0.021637   0.001167   0.382798
    22  H   -0.002506  -0.021558  -0.022373   0.000106  -0.001471  -0.002126
    23  H   -0.002213  -0.021170  -0.022005   0.000018   0.001074   0.001331
    24  H    0.000000   0.000005  -0.040715  -0.000036   0.002379  -0.000001
    25  H    0.000000   0.000001  -0.001659  -0.002208  -0.023453   0.000005
    26  H    0.000000   0.000000   0.000010  -0.000056  -0.002465  -0.000003
    27  H    0.000000   0.000000  -0.000001  -0.001463  -0.000986   0.000010
    28  H    0.000000   0.000000  -0.000011   0.000046   0.001064   0.000000
    29  H    0.000000   0.000000  -0.000016   0.000010  -0.002500   0.000000
    30  H    0.000000   0.000000  -0.000260   0.000000  -0.000755   0.000000
    31  H    0.000000   0.000000   0.000005  -0.000013   0.001046   0.000000
              7          8          9         10         11         12
     1  C   -0.024371  -0.000001   0.000000   0.000000   0.000000   0.382358
     2  C    0.363133   0.000283   0.000004   0.000000   0.000000  -0.020331
     3  C    0.358778   0.266690  -0.018766   0.000547  -0.001353  -0.000016
     4  C   -0.003943   0.000204  -0.021083  -0.003112   0.000573   0.000013
     5  C   -0.020585  -0.016098   0.358025  -0.020496  -0.019312   0.000000
     6  C   -0.025312   0.000002   0.000594   0.000018  -0.000003  -0.002254
     7  C    4.784342  -0.022275   0.000527  -0.000003   0.000002   0.001307
     8  O   -0.022275   7.849800  -0.000169  -0.000002  -0.001788   0.000000
     9  C    0.000527  -0.000169   4.740056   0.363854   0.364233   0.000000
    10  C   -0.000003  -0.000002   0.363854   4.745879  -0.027917   0.000000
    11  C    0.000002  -0.001788   0.364233  -0.027917   4.740608   0.000000
    12  H    0.001307   0.000000   0.000000   0.000000   0.000000   0.630195
    13  H   -0.002239   0.000000   0.000000   0.000000   0.000000  -0.021664
    14  H   -0.002268   0.000000   0.000000   0.000000   0.000000  -0.021635
    15  H   -0.024152   0.000001  -0.000005   0.000000   0.000000  -0.002268
    16  H   -0.026740  -0.018149  -0.002649   0.000010  -0.000016   0.000000
    17  H    0.000012  -0.000003  -0.001388  -0.001532   0.000002  -0.000001
    18  H    0.000071  -0.000001  -0.002783  -0.000045   0.000012   0.000002
    19  H   -0.001175  -0.000743  -0.023118  -0.002075  -0.001711   0.000000
    20  H   -0.002170  -0.000002   0.000001   0.000001   0.000000  -0.000003
    21  H    0.001325   0.000000  -0.000013   0.000000   0.000000   0.000251
    22  H    0.380358  -0.001060  -0.000001   0.000000   0.000000   0.000017
    23  H    0.380820  -0.001097  -0.000012   0.000000   0.000000   0.000016
    24  H   -0.002937   0.257584  -0.000006   0.000000   0.000066   0.000000
    25  H    0.000003   0.000027   0.379820  -0.024472  -0.024862   0.000000
    26  H    0.000000   0.000000  -0.020756   0.381713  -0.001352   0.000000
    27  H    0.000000   0.000000  -0.019523   0.382629   0.001380   0.000000
    28  H    0.000000   0.000000  -0.019271   0.382789  -0.004065   0.000000
    29  H   -0.000003  -0.000154  -0.020729  -0.001143   0.382518   0.000000
    30  H    0.000005  -0.000324  -0.019688   0.001394   0.382858   0.000000
    31  H    0.000000   0.000037  -0.019720  -0.004496   0.381496   0.000000
             13         14         15         16         17         18
     1  C    0.382367   0.382208  -0.024109  -0.000005  -0.000017   0.000006
     2  C   -0.020610  -0.020405   0.382144  -0.000960   0.001353  -0.001901
     3  C    0.000008   0.000011  -0.001862   0.373801   0.001122  -0.001280
     4  C    0.000009  -0.000018  -0.002067  -0.000745   0.383912   0.380700
     5  C    0.000001   0.000000   0.000069  -0.024660  -0.020195  -0.022772
     6  C   -0.002231   0.001306  -0.023856   0.000085  -0.023437  -0.023221
     7  C   -0.002239  -0.002268  -0.024152  -0.026740   0.000012   0.000071
     8  O    0.000000   0.000000   0.000001  -0.018149  -0.000003  -0.000001
     9  C    0.000000   0.000000  -0.000005  -0.002649  -0.001388  -0.002783
    10  C    0.000000   0.000000   0.000000   0.000010  -0.001532  -0.000045
    11  C    0.000000   0.000000   0.000000  -0.000016   0.000002   0.000012
    12  H   -0.021664  -0.021635  -0.002268   0.000000  -0.000001   0.000002
    13  H    0.629608  -0.021705   0.001877  -0.000001   0.000000  -0.000001
    14  H   -0.021705   0.631625  -0.002256   0.000001   0.000000   0.000000
    15  H    0.001877  -0.002256   0.650757   0.000286   0.000010   0.000301
    16  H   -0.000001   0.000001   0.000286   0.664708  -0.000014   0.000225
    17  H    0.000000   0.000000   0.000010  -0.000014   0.637969  -0.023082
    18  H   -0.000001   0.000000   0.000301   0.000225  -0.023082   0.646278
    19  H    0.000000   0.000000   0.000004   0.001819  -0.002964   0.001847
    20  H    0.000340   0.000012   0.001886   0.000002  -0.002989   0.001968
    21  H   -0.000002   0.000016  -0.002349  -0.000005  -0.002123  -0.002894
    22  H    0.000353  -0.000014   0.001893   0.001879  -0.000011   0.000004
    23  H   -0.000005   0.000261  -0.002450  -0.003058   0.000002  -0.000008
    24  H    0.000000   0.000000   0.000003  -0.003795   0.000001   0.000000
    25  H    0.000000   0.000000   0.000000   0.000398   0.000042   0.000366
    26  H    0.000000   0.000000   0.000000   0.000000   0.000002   0.000016
    27  H    0.000000   0.000000   0.000000   0.000001  -0.001484   0.000009
    28  H    0.000000   0.000000   0.000000   0.000000   0.000024  -0.000008
    29  H    0.000000   0.000000   0.000000   0.000015   0.000001   0.000000
    30  H    0.000000   0.000000   0.000000  -0.000075   0.000000   0.000001
    31  H    0.000000   0.000000   0.000000  -0.000006   0.000000  -0.000001
             19         20         21         22         23         24
     1  C   -0.000003  -0.002347  -0.002221  -0.002506  -0.002213   0.000000
     2  C    0.000078  -0.022389  -0.021664  -0.021558  -0.021170   0.000005
     3  C   -0.024029   0.000050   0.000020  -0.022373  -0.022005  -0.040715
     4  C   -0.022767  -0.022886  -0.021637   0.000106   0.000018  -0.000036
     5  C    0.377455  -0.001527   0.001167  -0.001471   0.001074   0.002379
     6  C   -0.001228   0.381580   0.382798  -0.002126   0.001331  -0.000001
     7  C   -0.001175  -0.002170   0.001325   0.380358   0.380820  -0.002937
     8  O   -0.000743  -0.000002   0.000000  -0.001060  -0.001097   0.257584
     9  C   -0.023118   0.000001  -0.000013  -0.000001  -0.000012  -0.000006
    10  C   -0.002075   0.000001   0.000000   0.000000   0.000000   0.000000
    11  C   -0.001711   0.000000   0.000000   0.000000   0.000000   0.000066
    12  H    0.000000  -0.000003   0.000251   0.000017   0.000016   0.000000
    13  H    0.000000   0.000340  -0.000002   0.000353  -0.000005   0.000000
    14  H    0.000000   0.000012   0.000016  -0.000014   0.000261   0.000000
    15  H    0.000004   0.001886  -0.002349   0.001893  -0.002450   0.000003
    16  H    0.001819   0.000002  -0.000005   0.001879  -0.003058  -0.003795
    17  H   -0.002964  -0.002989  -0.002123  -0.000011   0.000002   0.000001
    18  H    0.001847   0.001968  -0.002894   0.000004  -0.000008   0.000000
    19  H    0.643430   0.000292  -0.000002   0.000205  -0.000012   0.000028
    20  H    0.000292   0.642518  -0.023341   0.000282   0.000010   0.000000
    21  H   -0.000002  -0.023341   0.640228   0.000014  -0.000036   0.000000
    22  H    0.000205   0.000282   0.000014   0.635359  -0.024615  -0.000053
    23  H   -0.000012   0.000010  -0.000036  -0.024615   0.648961   0.000400
    24  H    0.000028   0.000000   0.000000  -0.000053   0.000400   0.611457
    25  H    0.001739  -0.000001   0.000000   0.000000   0.000000  -0.000004
    26  H    0.000405   0.000000   0.000000   0.000000   0.000000   0.000000
    27  H    0.000028   0.000001   0.000001   0.000000   0.000000   0.000000
    28  H    0.000003   0.000000   0.000000   0.000000   0.000000   0.000000
    29  H    0.000398   0.000000   0.000000   0.000000   0.000000   0.000016
    30  H    0.000002   0.000000   0.000000   0.000000   0.000000   0.000070
    31  H    0.000003   0.000000   0.000000   0.000000   0.000000  -0.000004
             25         26         27         28         29         30
     1  C    0.000000   0.000000   0.000000   0.000000   0.000000   0.000000
     2  C    0.000001   0.000000   0.000000   0.000000   0.000000   0.000000
     3  C   -0.001659   0.000010  -0.000001  -0.000011  -0.000016  -0.000260
     4  C   -0.002208  -0.000056  -0.001463   0.000046   0.000010   0.000000
     5  C   -0.023453  -0.002465  -0.000986   0.001064  -0.002500  -0.000755
     6  C    0.000005  -0.000003   0.000010   0.000000   0.000000   0.000000
     7  C    0.000003   0.000000   0.000000   0.000000  -0.000003   0.000005
     8  O    0.000027   0.000000   0.000000   0.000000  -0.000154  -0.000324
     9  C    0.379820  -0.020756  -0.019523  -0.019271  -0.020729  -0.019688
    10  C   -0.024472   0.381713   0.382629   0.382789  -0.001143   0.001394
    11  C   -0.024862  -0.001352   0.001380  -0.004065   0.382518   0.382858
    12  H    0.000000   0.000000   0.000000   0.000000   0.000000   0.000000
    13  H    0.000000   0.000000   0.000000   0.000000   0.000000   0.000000
    14  H    0.000000   0.000000   0.000000   0.000000   0.000000   0.000000
    15  H    0.000000   0.000000   0.000000   0.000000   0.000000   0.000000
    16  H    0.000398   0.000000   0.000001   0.000000   0.000015  -0.000075
    17  H    0.000042   0.000002  -0.001484   0.000024   0.000001   0.000000
    18  H    0.000366   0.000016   0.000009  -0.000008   0.000000   0.000001
    19  H    0.001739   0.000405   0.000028   0.000003   0.000398   0.000002
    20  H   -0.000001   0.000000   0.000001   0.000000   0.000000   0.000000
    21  H    0.000000   0.000000   0.000001   0.000000   0.000000   0.000000
    22  H    0.000000   0.000000   0.000000   0.000000   0.000000   0.000000
    23  H    0.000000   0.000000   0.000000   0.000000   0.000000   0.000000
    24  H   -0.000004   0.000000   0.000000   0.000000   0.000016   0.000070
    25  H    0.657586   0.001893  -0.003053  -0.001465   0.001897  -0.003469
    26  H    0.001893   0.631097  -0.021550  -0.021510   0.000234  -0.000005
    27  H   -0.003053  -0.021550   0.634680  -0.022968  -0.000008  -0.000040
    28  H   -0.001465  -0.021510  -0.022968   0.631691   0.000026   0.000070
    29  H    0.001897   0.000234  -0.000008   0.000026   0.624112  -0.020396
    30  H   -0.003469  -0.000005  -0.000040   0.000070  -0.020396   0.622498
    31  H   -0.001220   0.000023   0.000077  -0.000225  -0.021906  -0.023218
             31
     1  C    0.000000
     2  C    0.000000
     3  C    0.000005
     4  C   -0.000013
     5  C    0.001046
     6  C    0.000000
     7  C    0.000000
     8  O    0.000037
     9  C   -0.019720
    10  C   -0.004496
    11  C    0.381496
    12  H    0.000000
    13  H    0.000000
    14  H    0.000000
    15  H    0.000000
    16  H   -0.000006
    17  H    0.000000
    18  H   -0.000001
    19  H    0.000003
    20  H    0.000000
    21  H    0.000000
    22  H    0.000000
    23  H    0.000000
    24  H   -0.000004
    25  H   -0.001220
    26  H    0.000023
    27  H    0.000077
    28  H   -0.000225
    29  H   -0.021906
    30  H   -0.023218
    31  H    0.639772
 Mulliken atomic charges:
              1
     1  C   -0.171771
     2  C   -0.023929
     3  C    0.076999
     4  C   -0.102173
     5  C   -0.031384
     6  C   -0.099353
     7  C   -0.112510
     8  O   -0.312763
     9  C   -0.017436
    10  C   -0.173541
    11  C   -0.171368
    12  H    0.054014
    13  H    0.053896
    14  H    0.052861
    15  H    0.046144
    16  H    0.037651
    17  H    0.054789
    18  H    0.046190
    19  H    0.052089
    20  H    0.048710
    21  H    0.050465
    22  H    0.055318
    23  H    0.043787
    24  H    0.175542
    25  H    0.042091
    26  H    0.052304
    27  H    0.052261
    28  H    0.053809
    29  H    0.057628
    30  H    0.061332
    31  H    0.048348
 Sum of Mulliken atomic charges =   0.00000
 Mulliken charges with hydrogens summed into heavy atoms:
              1
     1  C   -0.011000
     2  C    0.022215
     3  C    0.114650
     4  C   -0.001194
     5  C    0.020704
     6  C   -0.000177
     7  C   -0.013404
     8  O   -0.137221
     9  C    0.024654
    10  C   -0.015167
    11  C   -0.004060
 Sum of Mulliken charges with hydrogens summed into heavy atoms =   0.00000
 Electronic spatial extent (au):  <R**2>=           2253.7158
 Charge=              0.0000 electrons
 Dipole moment (field-independent basis, Debye):
    X=             -1.0807    Y=             -0.1164    Z=             -0.8892  Tot=              1.4043
 Quadrupole moment (field-independent basis, Debye-Ang):
   XX=            -69.3943   YY=            -66.3710   ZZ=            -67.0330
   XY=             -2.4600   XZ=             -0.3811   YZ=             -2.2830
 Traceless Quadrupole moment (field-independent basis, Debye-Ang):
   XX=             -1.7949   YY=              1.2284   ZZ=              0.5665
   XY=             -2.4600   XZ=             -0.3811   YZ=             -2.2830
 Octapole moment (field-independent basis, Debye-Ang**2):
  XXX=              5.9300  YYY=             23.2762  ZZZ=              2.7675  XYY=             -7.1980
  XXY=              2.4475  XXZ=             -0.9406  XZZ=              0.4914  YZZ=              3.7499
  YYZ=             -5.9501  XYZ=             -1.1001
 Hexadecapole moment (field-independent basis, Debye-Ang**3):
 XXXX=          -2057.4335 YYYY=           -647.2273 ZZZZ=           -143.0457 XXXY=              3.6927
 XXXZ=             -0.5029 YYYX=             -3.7874 YYYZ=             -9.5838 ZZZX=              0.4998
 ZZZY=              3.1109 XXYY=           -461.8806 XXZZ=           -362.6683 YYZZ=           -142.3994
 XXYZ=              1.8986 YYXZ=             -0.3584 ZZXY=              1.7806
 N-N= 6.868810745357D+02 E-N=-2.445888196484D+03  KE= 4.555228498047D+02
 ******************************Gaussian NBO Version 3.1******************************
             N A T U R A L   A T O M I C   O R B I T A L   A N D
          N A T U R A L   B O N D   O R B I T A L   A N A L Y S I S
 ******************************Gaussian NBO Version 3.1******************************
       /RESON  / : Allow strongly delocalized NBO set
       /NLMO   / : Form Natural Localized Molecular Orbitals
       /NMR /    : Analyze NMR Sheilding Tensor 

 Analyzing the SCF density

 Job title: comment                                                         

 Storage needed:     19864 in NPA,     23691 in NBO,     45933 in NLMO (  33549317 available)


 NATURAL POPULATIONS:  Natural atomic orbital occupancies 
                                                          
   NAO  Atom  No  lang   Type(AO)    Occupancy      Energy
 ----------------------------------------------------------
     1    C    1  S      Cor( 1S)     1.99997     -10.96593
     2    C    1  S      Val( 2S)     1.07937      -0.18220
     3    C    1  px     Val( 2p)     0.99279       0.08711
     4    C    1  py     Val( 2p)     1.02843       0.08303
     5    C    1  pz     Val( 2p)     1.02603       0.08372

     6    C    2  S      Cor( 1S)     1.99997     -10.98919
     7    C    2  S      Val( 2S)     1.07597      -0.18951
     8    C    2  px     Val( 2p)     0.95528       0.10779
     9    C    2  py     Val( 2p)     0.96286       0.10561
    10    C    2  pz     Val( 2p)     0.99255       0.10215

    11    C    3  S      Cor( 1S)     1.99989     -11.03464
    12    C    3  S      Val( 2S)     1.08936      -0.21787
    13    C    3  px     Val( 2p)     0.93302       0.09799
    14    C    3  py     Val( 2p)     0.87648       0.10507
    15    C    3  pz     Val( 2p)     0.95604       0.09932

    16    C    4  S      Cor( 1S)     1.99996     -10.97463
    17    C    4  S      Val( 2S)     1.08523      -0.18985
    18    C    4  px     Val( 2p)     0.97571       0.09872
    19    C    4  py     Val( 2p)     0.99246       0.09355
    20    C    4  pz     Val( 2p)     1.01144       0.09384

    21    C    5  S      Cor( 1S)     1.99995     -10.99035
    22    C    5  S      Val( 2S)     1.10418      -0.21213
    23    C    5  px     Val( 2p)     0.95571       0.10486
    24    C    5  py     Val( 2p)     0.95063       0.10955
    25    C    5  pz     Val( 2p)     0.99706       0.09987

    26    C    6  S      Cor( 1S)     1.99997     -10.97393
    27    C    6  S      Val( 2S)     1.08170      -0.18621
    28    C    6  px     Val( 2p)     0.97889       0.09757
    29    C    6  py     Val( 2p)     0.99330       0.09509
    30    C    6  pz     Val( 2p)     1.00902       0.09407

    31    C    7  S      Cor( 1S)     1.99996     -10.97489
    32    C    7  S      Val( 2S)     1.09246      -0.19841
    33    C    7  px     Val( 2p)     0.98507       0.08849
    34    C    7  py     Val( 2p)     0.99182       0.09125
    35    C    7  pz     Val( 2p)     1.02010       0.08480

    36    O    8  S      Cor( 1S)     1.99999     -20.13935
    37    O    8  S      Val( 2S)     1.74950      -0.99726
    38    O    8  px     Val( 2p)     1.72002      -0.27239
    39    O    8  py     Val( 2p)     1.11049      -0.01049
    40    O    8  pz     Val( 2p)     1.75421      -0.28521

    41    C    9  S      Cor( 1S)     1.99996     -10.98650
    42    C    9  S      Val( 2S)     1.08798      -0.19351
    43    C    9  px     Val( 2p)     0.94548       0.11927
    44    C    9  py     Val( 2p)     0.95431       0.11546
    45    C    9  pz     Val( 2p)     0.98722       0.11006

    46    C   10  S      Cor( 1S)     1.99997     -10.95926
    47    C   10  S      Val( 2S)     1.08206      -0.17827
    48    C   10  px     Val( 2p)     1.01966       0.08869
    49    C   10  py     Val( 2p)     1.00435       0.09234
    50    C   10  pz     Val( 2p)     1.02331       0.09075

    51    C   11  S      Cor( 1S)     1.99997     -10.95117
    52    C   11  S      Val( 2S)     1.08104      -0.16859
    53    C   11  px     Val( 2p)     1.00810       0.10209
    54    C   11  py     Val( 2p)     1.00793       0.09910
    55    C   11  pz     Val( 2p)     1.03161       0.09757

    56    H   12  S      Val( 1S)     0.96326       0.07381

    57    H   13  S      Val( 1S)     0.96341       0.07352

    58    H   14  S      Val( 1S)     0.96435       0.07279

    59    H   15  S      Val( 1S)     0.97736       0.06219

    60    H   16  S      Val( 1S)     0.99811       0.04499

    61    H   17  S      Val( 1S)     0.96656       0.07530

    62    H   18  S      Val( 1S)     0.97473       0.06762

    63    H   19  S      Val( 1S)     0.97453       0.07036

    64    H   20  S      Val( 1S)     0.97178       0.06947

    65    H   21  S      Val( 1S)     0.96990       0.07022

    66    H   22  S      Val( 1S)     0.96536       0.07118

    67    H   23  S      Val( 1S)     0.97574       0.05992

    68    H   24  S      Val( 1S)     0.81194       0.07451

    69    H   25  S      Val( 1S)     0.98369       0.06772

    70    H   26  S      Val( 1S)     0.96508       0.07807

    71    H   27  S      Val( 1S)     0.96537       0.08050

    72    H   28  S      Val( 1S)     0.96345       0.07955

    73    H   29  S      Val( 1S)     0.96003       0.09229

    74    H   30  S      Val( 1S)     0.95700       0.09688

    75    H   31  S      Val( 1S)     0.96857       0.08295


 Summary of Natural Population Analysis:                  
                                                          
                                       Natural Population 
                Natural  -----------------------------------------------
    Atom  No    Charge         Core      Valence    Rydberg      Total
 -----------------------------------------------------------------------
      C    1   -0.12660      1.99997     4.12662    0.00000     6.12660
      C    2    0.01337      1.99997     3.98666    0.00000     5.98663
      C    3    0.14521      1.99989     3.85490    0.00000     5.85479
      C    4   -0.06479      1.99996     4.06484    0.00000     6.06479
      C    5   -0.00753      1.99995     4.00758    0.00000     6.00753
      C    6   -0.06288      1.99997     4.06291    0.00000     6.06288
      C    7   -0.08942      1.99996     4.08945    0.00000     6.08942
      O    8   -0.33420      1.99999     6.33421    0.00000     8.33420
      C    9    0.02506      1.99996     3.97499    0.00000     5.97494
      C   10   -0.12935      1.99997     4.12939    0.00000     6.12935
      C   11   -0.12865      1.99997     4.12868    0.00000     6.12865
      H   12    0.03674      0.00000     0.96326    0.00000     0.96326
      H   13    0.03659      0.00000     0.96341    0.00000     0.96341
      H   14    0.03565      0.00000     0.96435    0.00000     0.96435
      H   15    0.02264      0.00000     0.97736    0.00000     0.97736
      H   16    0.00189      0.00000     0.99811    0.00000     0.99811
      H   17    0.03344      0.00000     0.96656    0.00000     0.96656
      H   18    0.02527      0.00000     0.97473    0.00000     0.97473
      H   19    0.02547      0.00000     0.97453    0.00000     0.97453
      H   20    0.02822      0.00000     0.97178    0.00000     0.97178
      H   21    0.03010      0.00000     0.96990    0.00000     0.96990
      H   22    0.03464      0.00000     0.96536    0.00000     0.96536
      H   23    0.02426      0.00000     0.97574    0.00000     0.97574
      H   24    0.18806      0.00000     0.81194    0.00000     0.81194
      H   25    0.01631      0.00000     0.98369    0.00000     0.98369
      H   26    0.03492      0.00000     0.96508    0.00000     0.96508
      H   27    0.03463      0.00000     0.96537    0.00000     0.96537
      H   28    0.03655      0.00000     0.96345    0.00000     0.96345
      H   29    0.03997      0.00000     0.96003    0.00000     0.96003
      H   30    0.04300      0.00000     0.95700    0.00000     0.95700
      H   31    0.03143      0.00000     0.96857    0.00000     0.96857
 =======================================================================
   * Total *    0.00000     21.99956    66.00044    0.00000    88.00000

                                 Natural Population      
 --------------------------------------------------------
   Core                      21.99956 ( 99.9980% of  22)
   Valence                   66.00044 (100.0007% of  66)
   Natural Minimal Basis     88.00000 (100.0000% of  88)
   Natural Rydberg Basis      0.00000 (  0.0000% of  88)
 --------------------------------------------------------

    Atom  No          Natural Electron Configuration
 ----------------------------------------------------------------------------
      C    1      [core]2S( 1.08)2p( 3.05)
      C    2      [core]2S( 1.08)2p( 2.91)
      C    3      [core]2S( 1.09)2p( 2.77)
      C    4      [core]2S( 1.09)2p( 2.98)
      C    5      [core]2S( 1.10)2p( 2.90)
      C    6      [core]2S( 1.08)2p( 2.98)
      C    7      [core]2S( 1.09)2p( 3.00)
      O    8      [core]2S( 1.75)2p( 4.58)
      C    9      [core]2S( 1.09)2p( 2.89)
      C   10      [core]2S( 1.08)2p( 3.05)
      C   11      [core]2S( 1.08)2p( 3.05)
      H   12            1S( 0.96)
      H   13            1S( 0.96)
      H   14            1S( 0.96)
      H   15            1S( 0.98)
      H   16            1S( 1.00)
      H   17            1S( 0.97)
      H   18            1S( 0.97)
      H   19            1S( 0.97)
      H   20            1S( 0.97)
      H   21            1S( 0.97)
      H   22            1S( 0.97)
      H   23            1S( 0.98)
      H   24            1S( 0.81)
      H   25            1S( 0.98)
      H   26            1S( 0.97)
      H   27            1S( 0.97)
      H   28            1S( 0.96)
      H   29            1S( 0.96)
      H   30            1S( 0.96)
      H   31            1S( 0.97)


 NATURAL BOND ORBITAL ANALYSIS:

                       Occupancies       Lewis Structure    Low   High
           Occ.    -------------------  -----------------   occ   occ
  Cycle   Thresh.   Lewis   Non-Lewis     CR  BD  3C  LP    (L)   (NL)   Dev
 =============================================================================
   1(1)    1.90    87.63995   0.36005     11  31   0   2     0      0    0.02
 -----------------------------------------------------------------------------

 Structure accepted: No low occupancy Lewis orbitals

 --------------------------------------------------------
   Core                     21.99955 ( 99.998% of  22)
   Valence Lewis            65.64040 ( 99.455% of  66)
  ==================       ============================
   Total Lewis              87.63995 ( 99.591% of  88)
  -----------------------------------------------------
   Valence non-Lewis         0.36005 (  0.409% of  88)
   Rydberg non-Lewis         0.00000 (  0.000% of  88)
  ==================       ============================
   Total non-Lewis           0.36005 (  0.409% of  88)
 --------------------------------------------------------


       (Occupancy)   Bond orbital/ Coefficients/ Hybrids
 ---------------------------------------------------------------------------------
     1. (1.98905) BD ( 1) C   1 - C   2  
                ( 50.82%)   0.7129* C   1 s( 25.77%)p 2.88( 74.23%)
                                            0.0001  0.5076  0.8293 -0.0275 -0.2321
                ( 49.18%)   0.7013* C   2 s( 25.12%)p 2.98( 74.88%)
                                            0.0000  0.5012 -0.8268  0.0305  0.2535
     2. (1.99499) BD ( 1) C   1 - H  12  
                ( 51.85%)   0.7201* C   1 s( 24.71%)p 3.05( 75.29%)
                                            0.0000  0.4971 -0.4044 -0.7176 -0.2727
                ( 48.15%)   0.6939* H  12 s(100.00%)
                                            1.0000
     3. (1.99548) BD ( 1) C   1 - H  13  
                ( 51.87%)   0.7202* C   1 s( 24.85%)p 3.02( 75.15%)
                                            0.0000  0.4985 -0.0618  0.0521  0.8631
                ( 48.13%)   0.6937* H  13 s(100.00%)
                                            1.0000
     4. (1.99506) BD ( 1) C   1 - H  14  
                ( 51.80%)   0.7197* C   1 s( 24.67%)p 3.05( 75.33%)
                                            0.0000  0.4967 -0.3807  0.6939 -0.3561
                ( 48.20%)   0.6943* H  14 s(100.00%)
                                            1.0000
     5. (1.98540) BD ( 1) C   2 - C   6  
                ( 49.76%)   0.7054* C   2 s( 25.07%)p 2.99( 74.93%)
                                            0.0000  0.5007  0.3841 -0.6940  0.3466
                ( 50.24%)   0.7088* C   6 s( 25.31%)p 2.95( 74.69%)
                                            0.0001  0.5031 -0.3851  0.6956 -0.3387
     6. (1.98430) BD ( 1) C   2 - C   7  
                ( 49.38%)   0.7027* C   2 s( 24.98%)p 3.00( 75.02%)
                                            0.0000  0.4998  0.4094  0.7174  0.2608
                ( 50.62%)   0.7115* C   7 s( 25.69%)p 2.89( 74.31%)
                                            0.0001  0.5069 -0.4053 -0.7167 -0.2553
     7. (1.98490) BD ( 1) C   2 - H  15  
                ( 51.08%)   0.7147* C   2 s( 24.84%)p 3.03( 75.16%)
                                            0.0000  0.4984  0.0350 -0.0529 -0.8646
                ( 48.92%)   0.6995* H  15 s(100.00%)
                                            1.0000
     8. (1.98178) BD ( 1) C   3 - C   5  
                ( 50.74%)   0.7123* C   3 s( 26.72%)p 2.74( 73.28%)
                                            0.0000  0.5169  0.4152 -0.6869  0.2976
                ( 49.26%)   0.7019* C   5 s( 25.07%)p 2.99( 74.93%)
                                            0.0001  0.5007 -0.3991  0.7067 -0.3012
     9. (1.98719) BD ( 1) C   3 - C   7  
                ( 49.32%)   0.7023* C   3 s( 25.70%)p 2.89( 74.30%)
                                            0.0000  0.5070 -0.8325 -0.0254  0.2221
                ( 50.68%)   0.7119* C   7 s( 25.14%)p 2.98( 74.86%)
                                            0.0000  0.5014  0.8347 -0.0372 -0.2249
    10. (1.98812) BD ( 1) C   3 - O   8  
                ( 41.02%)   0.6405* C   3 s( 22.14%)p 3.52( 77.86%)
                                            0.0000 -0.4706 -0.3589 -0.7243 -0.3538
                ( 58.98%)   0.7680* O   8 s( 16.45%)p 5.08( 83.55%)
                                            0.0000 -0.4056  0.4006  0.7131  0.4080
    11. (1.98925) BD ( 1) C   3 - H  16  
                ( 50.41%)   0.7100* C   3 s( 25.44%)p 2.93( 74.56%)
                                            0.0000  0.5044  0.0765  0.0538 -0.8584
                ( 49.59%)   0.7042* H  16 s(100.00%)
                                            1.0000
    12. (1.98286) BD ( 1) C   4 - C   5  
                ( 50.42%)   0.7101* C   4 s( 25.42%)p 2.93( 74.58%)
                                            0.0001  0.5042  0.4292  0.7176  0.2158
                ( 49.58%)   0.7041* C   5 s( 25.15%)p 2.98( 74.85%)
                                            0.0000  0.5015 -0.4473 -0.7048 -0.2273
    13. (1.98912) BD ( 1) C   4 - C   6  
                ( 49.99%)   0.7070* C   4 s( 25.23%)p 2.96( 74.77%)
                                            0.0000  0.5023 -0.8285  0.0713  0.2370
                ( 50.01%)   0.7072* C   6 s( 25.11%)p 2.98( 74.89%)
                                            0.0000  0.5011  0.8319 -0.0176 -0.2378
    14. (1.98901) BD ( 1) C   4 - H  17  
                ( 51.64%)   0.7186* C   4 s( 24.78%)p 3.04( 75.22%)
                                            0.0000  0.4977  0.3569 -0.6829  0.3982
                ( 48.36%)   0.6954* H  17 s(100.00%)
                                            1.0000
    15. (1.99074) BD ( 1) C   4 - H  18  
                ( 51.29%)   0.7162* C   4 s( 24.57%)p 3.07( 75.43%)
                                            0.0000  0.4957  0.0447 -0.1165 -0.8595
                ( 48.71%)   0.6979* H  18 s(100.00%)
                                            1.0000
    16. (1.97831) BD ( 1) C   5 - C   9  
                ( 50.21%)   0.7086* C   5 s( 25.12%)p 2.98( 74.88%)
                                            0.0000  0.5012  0.7990 -0.0443 -0.3294
                ( 49.79%)   0.7056* C   9 s( 25.38%)p 2.94( 74.62%)
                                            0.0001  0.5038 -0.7977  0.0726  0.3235
    17. (1.98478) BD ( 1) C   5 - H  19  
                ( 51.21%)   0.7156* C   5 s( 24.67%)p 3.05( 75.33%)
                                            0.0000  0.4967  0.0478  0.0440  0.8655
                ( 48.79%)   0.6985* H  19 s(100.00%)
                                            1.0000
    18. (1.99059) BD ( 1) C   6 - H  20  
                ( 51.44%)   0.7172* C   6 s( 24.72%)p 3.04( 75.28%)
                                            0.0000  0.4972 -0.0514  0.0333  0.8655
                ( 48.56%)   0.6968* H  20 s(100.00%)
                                            1.0000
    19. (1.98950) BD ( 1) C   6 - H  21  
                ( 51.47%)   0.7174* C   6 s( 24.86%)p 3.02( 75.14%)
                                            0.0000  0.4986 -0.3962 -0.7174 -0.2824
                ( 48.53%)   0.6966* H  21 s(100.00%)
                                            1.0000
    20. (1.98972) BD ( 1) C   7 - H  22  
                ( 51.75%)   0.7194* C   7 s( 24.60%)p 3.06( 75.40%)
                                            0.0000  0.4960 -0.0620  0.0786  0.8625
                ( 48.25%)   0.6946* H  22 s(100.00%)
                                            1.0000
    21. (1.98864) BD ( 1) C   7 - H  23  
                ( 51.18%)   0.7154* C   7 s( 24.57%)p 3.07( 75.43%)
                                            0.0000  0.4957 -0.3678  0.6919 -0.3746
                ( 48.82%)   0.6987* H  23 s(100.00%)
                                            1.0000
    22. (1.98913) BD ( 1) O   8 - H  24  
                ( 59.40%)   0.7707* O   8 s( 16.77%)p 4.96( 83.23%)
                                            0.0000 -0.4095  0.4439 -0.7001  0.3809
                ( 40.60%)   0.6371* H  24 s(100.00%)
                                           -1.0000
    23. (1.98917) BD ( 1) C   9 - C  10  
                ( 48.90%)   0.6993* C   9 s( 24.87%)p 3.02( 75.13%)
                                            0.0000  0.4987  0.3813 -0.7085  0.3224
                ( 51.10%)   0.7148* C  10 s( 25.82%)p 2.87( 74.18%)
                                            0.0001  0.5082 -0.4126  0.6962 -0.2946
    24. (1.98947) BD ( 1) C   9 - C  11  
                ( 49.39%)   0.7028* C   9 s( 25.32%)p 2.95( 74.68%)
                                            0.0000  0.5032  0.4651  0.6985  0.2064
                ( 50.61%)   0.7114* C  11 s( 25.76%)p 2.88( 74.24%)
                                            0.0001  0.5076 -0.4982 -0.6808 -0.1752
    25. (1.98554) BD ( 1) C   9 - H  25  
                ( 50.75%)   0.7124* C   9 s( 24.42%)p 3.09( 75.58%)
                                            0.0000  0.4942 -0.0451 -0.0702 -0.8653
                ( 49.25%)   0.7018* H  25 s(100.00%)
                                            1.0000
    26. (1.99560) BD ( 1) C  10 - H  26  
                ( 51.79%)   0.7196* C  10 s( 24.87%)p 3.02( 75.13%)
                                            0.0000  0.4987 -0.0258 -0.0126  0.8663
                ( 48.21%)   0.6943* H  26 s(100.00%)
                                            1.0000
    27. (1.99493) BD ( 1) C  10 - H  27  
                ( 51.76%)   0.7195* C  10 s( 24.63%)p 3.06( 75.37%)
                                            0.0000  0.4963 -0.3800 -0.7175 -0.3074
                ( 48.24%)   0.6945* H  27 s(100.00%)
                                            1.0000
    28. (1.99428) BD ( 1) C  10 - H  28  
                ( 51.83%)   0.7199* C  10 s( 24.68%)p 3.05( 75.32%)
                                            0.0000  0.4968  0.8275  0.0173 -0.2611
                ( 48.17%)   0.6941* H  28 s(100.00%)
                                            1.0000
    29. (1.99559) BD ( 1) C  11 - H  29  
                ( 52.04%)   0.7214* C  11 s( 25.04%)p 2.99( 74.96%)
                                            0.0000  0.5004 -0.0398  0.1848  0.8449
                ( 47.96%)   0.6925* H  29 s(100.00%)
                                            1.0000
    30. (1.99542) BD ( 1) C  11 - H  30  
                ( 52.20%)   0.7225* C  11 s( 24.75%)p 3.04( 75.25%)
                                            0.0000  0.4975 -0.2698  0.6860 -0.4573
                ( 47.80%)   0.6914* H  30 s(100.00%)
                                            1.0000
    31. (1.99413) BD ( 1) C  11 - H  31  
                ( 51.58%)   0.7182* C  11 s( 24.46%)p 3.09( 75.54%)
                                            0.0000  0.4945  0.8230 -0.1783 -0.2151
                ( 48.42%)   0.6959* H  31 s(100.00%)
                                            1.0000
    32. (1.99997) CR ( 1) C   1           s(100.00%)
                                            1.0000  0.0000 -0.0001  0.0000  0.0000
    33. (1.99997) CR ( 1) C   2           s(100.00%)
                                            1.0000  0.0000  0.0000  0.0000  0.0000
    34. (1.99989) CR ( 1) C   3           s(100.00%)
                                            1.0000  0.0000  0.0000  0.0001  0.0000
    35. (1.99995) CR ( 1) C   4           s(100.00%)
                                            1.0000 -0.0001  0.0000 -0.0001  0.0000
    36. (1.99995) CR ( 1) C   5           s(100.00%)
                                            1.0000 -0.0001  0.0000  0.0000  0.0000
    37. (1.99997) CR ( 1) C   6           s(100.00%)
                                            1.0000  0.0000  0.0000 -0.0001  0.0000
    38. (1.99996) CR ( 1) C   7           s(100.00%)
                                            1.0000  0.0000  0.0000  0.0001  0.0000
    39. (1.99999) CR ( 1) O   8           s(100.00%)
                                            1.0000  0.0000  0.0000  0.0000  0.0000
    40. (1.99996) CR ( 1) C   9           s(100.00%)
                                            1.0000  0.0000  0.0001  0.0000  0.0000
    41. (1.99997) CR ( 1) C  10           s(100.00%)
                                            1.0000  0.0000  0.0001 -0.0001  0.0000
    42. (1.99997) CR ( 1) C  11           s(100.00%)
                                            1.0000  0.0000  0.0001  0.0001  0.0000
    43. (1.99287) LP ( 1) O   8           s( 66.67%)p 0.50( 33.33%)
                                            0.0000  0.8165  0.3924  0.0016  0.4235
    44. (1.97548) LP ( 2) O   8           s(  0.12%)p99.99( 99.88%)
                                            0.0000  0.0341  0.6989  0.0350 -0.7135
    45. (0.01034) BD*( 1) C   1 - C   2  
                ( 49.18%)   0.7013* C   1 s( 25.77%)p 2.88( 74.23%)
                                           -0.0001 -0.5076 -0.8293  0.0275  0.2321
                ( 50.82%)  -0.7129* C   2 s( 25.12%)p 2.98( 74.88%)
                                            0.0000 -0.5012  0.8268 -0.0305 -0.2535
    46. (0.00514) BD*( 1) C   1 - H  12  
                ( 48.15%)   0.6939* C   1 s( 24.71%)p 3.05( 75.29%)
                                            0.0000 -0.4971  0.4044  0.7176  0.2727
                ( 51.85%)  -0.7201* H  12 s(100.00%)
                                           -1.0000
    47. (0.00585) BD*( 1) C   1 - H  13  
                ( 48.13%)   0.6937* C   1 s( 24.85%)p 3.02( 75.15%)
                                            0.0000 -0.4985  0.0618 -0.0521 -0.8631
                ( 51.87%)  -0.7202* H  13 s(100.00%)
                                           -1.0000
    48. (0.00517) BD*( 1) C   1 - H  14  
                ( 48.20%)   0.6943* C   1 s( 24.67%)p 3.05( 75.33%)
                                            0.0000 -0.4967  0.3807 -0.6939  0.3561
                ( 51.80%)  -0.7197* H  14 s(100.00%)
                                           -1.0000
    49. (0.01569) BD*( 1) C   2 - C   6  
                ( 50.24%)   0.7088* C   2 s( 25.07%)p 2.99( 74.93%)
                                            0.0000  0.5007  0.3841 -0.6940  0.3466
                ( 49.76%)  -0.7054* C   6 s( 25.31%)p 2.95( 74.69%)
                                            0.0001  0.5031 -0.3851  0.6956 -0.3387
    50. (0.01543) BD*( 1) C   2 - C   7  
                ( 50.62%)   0.7115* C   2 s( 24.98%)p 3.00( 75.02%)
                                            0.0000  0.4998  0.4094  0.7174  0.2608
                ( 49.38%)  -0.7027* C   7 s( 25.69%)p 2.89( 74.31%)
                                            0.0001  0.5069 -0.4053 -0.7167 -0.2553
    51. (0.01229) BD*( 1) C   2 - H  15  
                ( 48.92%)   0.6995* C   2 s( 24.84%)p 3.03( 75.16%)
                                            0.0000 -0.4984 -0.0350  0.0529  0.8646
                ( 51.08%)  -0.7147* H  15 s(100.00%)
                                           -1.0000
    52. (0.02735) BD*( 1) C   3 - C   5  
                ( 49.26%)   0.7019* C   3 s( 26.72%)p 2.74( 73.28%)
                                            0.0000 -0.5169 -0.4152  0.6869 -0.2976
                ( 50.74%)  -0.7123* C   5 s( 25.07%)p 2.99( 74.93%)
                                           -0.0001 -0.5007  0.3991 -0.7067  0.3012
    53. (0.02645) BD*( 1) C   3 - C   7  
                ( 50.68%)   0.7119* C   3 s( 25.70%)p 2.89( 74.30%)
                                            0.0000  0.5070 -0.8325 -0.0254  0.2221
                ( 49.32%)  -0.7023* C   7 s( 25.14%)p 2.98( 74.86%)
                                            0.0000  0.5014  0.8347 -0.0372 -0.2249
    54. (0.02113) BD*( 1) C   3 - O   8  
                ( 58.98%)   0.7680* C   3 s( 22.14%)p 3.52( 77.86%)
                                            0.0000 -0.4706 -0.3589 -0.7243 -0.3538
                ( 41.02%)  -0.6405* O   8 s( 16.45%)p 5.08( 83.55%)
                                            0.0000 -0.4056  0.4006  0.7131  0.4080
    55. (0.02318) BD*( 1) C   3 - H  16  
                ( 49.59%)   0.7042* C   3 s( 25.44%)p 2.93( 74.56%)
                                            0.0000 -0.5044 -0.0765 -0.0538  0.8584
                ( 50.41%)  -0.7100* H  16 s(100.00%)
                                           -1.0000
    56. (0.01539) BD*( 1) C   4 - C   5  
                ( 49.58%)   0.7041* C   4 s( 25.42%)p 2.93( 74.58%)
                                           -0.0001 -0.5042 -0.4292 -0.7176 -0.2158
                ( 50.42%)  -0.7101* C   5 s( 25.15%)p 2.98( 74.85%)
                                            0.0000 -0.5015  0.4473  0.7048  0.2273
    57. (0.01159) BD*( 1) C   4 - C   6  
                ( 50.01%)   0.7072* C   4 s( 25.23%)p 2.96( 74.77%)
                                            0.0000  0.5023 -0.8285  0.0713  0.2370
                ( 49.99%)  -0.7070* C   6 s( 25.11%)p 2.98( 74.89%)
                                            0.0000  0.5011  0.8319 -0.0176 -0.2378
    58. (0.00887) BD*( 1) C   4 - H  17  
                ( 48.36%)   0.6954* C   4 s( 24.78%)p 3.04( 75.22%)
                                            0.0000 -0.4977 -0.3569  0.6829 -0.3982
                ( 51.64%)  -0.7186* H  17 s(100.00%)
                                           -1.0000
    59. (0.00999) BD*( 1) C   4 - H  18  
                ( 48.71%)   0.6979* C   4 s( 24.57%)p 3.07( 75.43%)
                                            0.0000 -0.4957 -0.0447  0.1165  0.8595
                ( 51.29%)  -0.7162* H  18 s(100.00%)
                                           -1.0000
    60. (0.02182) BD*( 1) C   5 - C   9  
                ( 49.79%)   0.7056* C   5 s( 25.12%)p 2.98( 74.88%)
                                            0.0000 -0.5012 -0.7990  0.0443  0.3294
                ( 50.21%)  -0.7086* C   9 s( 25.38%)p 2.94( 74.62%)
                                           -0.0001 -0.5038  0.7977 -0.0726 -0.3235
    61. (0.01220) BD*( 1) C   5 - H  19  
                ( 48.79%)   0.6985* C   5 s( 24.67%)p 3.05( 75.33%)
                                            0.0000 -0.4967 -0.0478 -0.0440 -0.8655
                ( 51.21%)  -0.7156* H  19 s(100.00%)
                                           -1.0000
    62. (0.01001) BD*( 1) C   6 - H  20  
                ( 48.56%)   0.6968* C   6 s( 24.72%)p 3.04( 75.28%)
                                            0.0000 -0.4972  0.0514 -0.0333 -0.8655
                ( 51.44%)  -0.7172* H  20 s(100.00%)
                                           -1.0000
    63. (0.00866) BD*( 1) C   6 - H  21  
                ( 48.53%)   0.6966* C   6 s( 24.86%)p 3.02( 75.14%)
                                            0.0000 -0.4986  0.3962  0.7174  0.2824
                ( 51.47%)  -0.7174* H  21 s(100.00%)
                                           -1.0000
    64. (0.01028) BD*( 1) C   7 - H  22  
                ( 48.25%)   0.6946* C   7 s( 24.60%)p 3.06( 75.40%)
                                            0.0000 -0.4960  0.0620 -0.0786 -0.8625
                ( 51.75%)  -0.7194* H  22 s(100.00%)
                                           -1.0000
    65. (0.00961) BD*( 1) C   7 - H  23  
                ( 48.82%)   0.6987* C   7 s( 24.57%)p 3.07( 75.43%)
                                            0.0000 -0.4957  0.3678 -0.6919  0.3746
                ( 51.18%)  -0.7154* H  23 s(100.00%)
                                           -1.0000
    66. (0.00749) BD*( 1) O   8 - H  24  
                ( 40.60%)   0.6371* O   8 s( 16.77%)p 4.96( 83.23%)
                                            0.0000  0.4095 -0.4439  0.7001 -0.3809
                ( 59.40%)  -0.7707* H  24 s(100.00%)
                                            1.0000
    67. (0.01019) BD*( 1) C   9 - C  10  
                ( 51.10%)   0.7148* C   9 s( 24.87%)p 3.02( 75.13%)
                                            0.0000  0.4987  0.3813 -0.7085  0.3224
                ( 48.90%)  -0.6993* C  10 s( 25.82%)p 2.87( 74.18%)
                                            0.0001  0.5082 -0.4126  0.6962 -0.2946
    68. (0.01008) BD*( 1) C   9 - C  11  
                ( 50.61%)   0.7114* C   9 s( 25.32%)p 2.95( 74.68%)
                                            0.0000  0.5032  0.4651  0.6985  0.2064
                ( 49.39%)  -0.7028* C  11 s( 25.76%)p 2.88( 74.24%)
                                            0.0001  0.5076 -0.4982 -0.6808 -0.1752
    69. (0.01156) BD*( 1) C   9 - H  25  
                ( 49.25%)   0.7018* C   9 s( 24.42%)p 3.09( 75.58%)
                                            0.0000 -0.4942  0.0451  0.0702  0.8653
                ( 50.75%)  -0.7124* H  25 s(100.00%)
                                           -1.0000
    70. (0.00572) BD*( 1) C  10 - H  26  
                ( 48.21%)   0.6943* C  10 s( 24.87%)p 3.02( 75.13%)
                                            0.0000 -0.4987  0.0258  0.0126 -0.8663
                ( 51.79%)  -0.7196* H  26 s(100.00%)
                                           -1.0000
    71. (0.00600) BD*( 1) C  10 - H  27  
                ( 48.24%)   0.6945* C  10 s( 24.63%)p 3.06( 75.37%)
                                            0.0000 -0.4963  0.3800  0.7175  0.3074
                ( 51.76%)  -0.7195* H  27 s(100.00%)
                                           -1.0000
    72. (0.00531) BD*( 1) C  10 - H  28  
                ( 48.17%)   0.6941* C  10 s( 24.68%)p 3.05( 75.32%)
                                            0.0000 -0.4968 -0.8275 -0.0173  0.2611
[...]
                         Standard Origin              Atomic Origin
 NLMO      Total    Paramagnetic  Diamagnetic   Paramagnetic  Diamagnetic
    6      -1.1959       -1.4751       0.2792        -1.1969       0.0010
    9      -0.4695       -0.1233      -0.3462        -1.4403       0.9708
   10      27.5593        9.6292      17.9301        16.9831      10.5761
   11      -0.0433       -0.4617       0.4184        -1.2806       1.2373
   20      -0.1954       -0.7537       0.5583        -1.2265       1.0311
   21      -0.2502       -0.6641       0.4139        -1.1700       0.9198
   22      18.4142        9.6986       8.7156         4.0046      14.4096
   30      -0.3269       -1.2795       0.9526        -1.0992       0.7723
   39     271.1726       -0.0057     271.1784        -0.0039     271.1766
   43      33.8737       -1.6346      35.5083        -3.5897      37.4633
   44       2.7184      -36.1493      38.8677       -37.2585      39.9769
 Sum      351.2568      -23.2193     374.4762       -27.2780     378.5348

 Contributions to Isotropic shielding for atom    9 (   211.0537 ppm):
                         Standard Origin              Atomic Origin
 NLMO      Total    Paramagnetic  Diamagnetic   Paramagnetic  Diamagnetic
   10       0.0914       -0.2804       0.3717        -1.1398       1.2311
   16       5.3147      -10.1818      15.4965        -2.4183       7.7330
   17       0.3525       -0.1312       0.4838        -0.6756       1.0282
   23      -2.1776       -4.8427       2.6651        -9.6441       7.4664
   24      -1.9538       -5.7502       3.7965        -9.6770       7.7232
   25       5.2915       -4.1684       9.4599        -5.5250      10.8165
   26       0.9645       -0.4776       1.4420        -0.1072       1.0717
   27       0.7349       -0.5179       1.2528        -0.2381       0.9730
   29       0.8897       -0.5078       1.3975        -0.1981       1.0878
   30       0.6416       -0.6166       1.2582        -0.3858       1.0274
   40     199.9171       -0.0014     199.9185         0.0017     199.9154
 Sum      210.0664      -27.4760     237.5424       -30.0073     240.0737

 Contributions to Isotropic shielding for atom   10 (   220.6865 ppm):
                         Standard Origin              Atomic Origin
 NLMO      Total    Paramagnetic  Diamagnetic   Paramagnetic  Diamagnetic
   23       4.7800      -11.4010      16.1810        -3.2688       8.0487
   24      -0.5333        0.2475      -0.7808        -1.3050       0.7717
   25       0.2730       -0.0710       0.3440        -0.7429       1.0160
   26       6.0228       -4.0406      10.0634        -5.1057      11.1285
   27       5.9042       -4.1778      10.0820        -5.1724      11.0766
   28       4.2108        2.3467       1.8641        -6.9023      11.1131
   31      -0.3444       -0.9682       0.6238        -1.3256       0.9813
   41     200.0742       -0.0039     200.0781         0.0023     200.0719
 Sum      220.3873      -18.0683     238.4556       -23.8204     244.2077

 Contributions to Isotropic shielding for atom   11 (   220.5566 ppm):
                         Standard Origin              Atomic Origin
 NLMO      Total    Paramagnetic  Diamagnetic   Paramagnetic  Diamagnetic
   10       0.1044       -0.2456       0.3500        -1.1189       1.2233
   23      -0.5301        0.2282      -0.7583        -1.2833       0.7532
   24       4.6180      -10.5023      15.1203        -3.1735       7.7916
   25       0.2698       -0.1380       0.4078        -0.7661       1.0359
   28      -0.3126       -1.0037       0.6911        -1.2848       0.9721
   29       6.0722       -4.4418      10.5140        -5.1580      11.2302
   30       6.1532       -4.8373      10.9904        -5.0885      11.2416
   31       4.1152        2.4675       1.6476        -6.8864      11.0015
   42     200.0738       -0.0037     200.0775         0.0023     200.0716
 Sum      220.5638      -18.4767     239.0405       -24.7573     245.3211

 Contributions to Isotropic shielding for atom   12 (    32.4546 ppm):
                         Standard Origin              Atomic Origin
 NLMO      Total    Paramagnetic  Diamagnetic   Paramagnetic  Diamagnetic
    1       1.4219       -0.5509       1.9728         0.4202       1.0017
    2      26.3510        0.1325      26.2185         0.4424      25.9085
    3       1.9158        1.6498       0.2660         0.0719       1.8440
    4       1.9000        2.3098      -0.4097         0.0633       1.8367
    5      -0.1662        0.7674      -0.9336        -1.0386       0.8724
 Sum       31.4226        4.3086      27.1140        -0.0408      31.4634

 Contributions to Isotropic shielding for atom   13 (    32.6487 ppm):
                         Standard Origin              Atomic Origin
 NLMO      Total    Paramagnetic  Diamagnetic   Paramagnetic  Diamagnetic
    1       1.6720       -1.3444       3.0164         0.7832       0.8888
    2       1.9303        1.8875       0.0428         0.1047       1.8255
    3      26.3249        0.2851      26.0397         0.4365      25.8884
    4       1.9431        1.6958       0.2474         0.1219       1.8212
 Sum       31.8703        2.5240      29.3462         1.4464      30.4239

 Contributions to Isotropic shielding for atom   14 (    32.5120 ppm):
                         Standard Origin              Atomic Origin
 NLMO      Total    Paramagnetic  Diamagnetic   Paramagnetic  Diamagnetic
    1       1.4708       -0.7179       2.1887         0.4734       0.9974
    2       1.8898        2.3560      -0.4662         0.0504       1.8394
    3       1.9323        1.5128       0.4194         0.0876       1.8447
    4      26.3704        0.1637      26.2068         0.4319      25.9385
 Sum       31.6633        3.3146      28.3487         1.0434      30.6200

 Contributions to Isotropic shielding for atom   15 (    32.9371 ppm):
                         Standard Origin              Atomic Origin
 NLMO      Total    Paramagnetic  Diamagnetic   Paramagnetic  Diamagnetic
    1       0.7871        2.2797      -1.4927        -0.1405       0.9276
    2       0.2665       -0.9241       1.1906        -0.6915       0.9580
    4       0.2661       -0.9539       1.2200        -0.6927       0.9587
    5       1.5254        0.3436       1.1818         0.7012       0.8242
    6       1.5516        0.1180       1.4335         0.7261       0.8255
    7      26.4607        0.0691      26.3916         0.3806      26.0801
 Sum       30.8574        0.9325      29.9249         0.2833      30.5741

 Contributions to Isotropic shielding for atom   16 (    32.1961 ppm):
                         Standard Origin              Atomic Origin
 NLMO      Total    Paramagnetic  Diamagnetic   Paramagnetic  Diamagnetic
    8       1.0429       -0.0682       1.1111        -0.0991       1.1419
   10       0.6508        1.0206      -0.3698        -0.8630       1.5138
   11      26.7740        0.4086      26.3654         0.7120      26.0620
   22       0.3207       -0.8069       1.1276        -0.6508       0.9715
 Sum       28.7884        0.5541      28.2342        -0.9008      29.6892

 Contributions to Isotropic shielding for atom   17 (    32.1977 ppm):
                         Standard Origin              Atomic Origin
 NLMO      Total    Paramagnetic  Diamagnetic   Paramagnetic  Diamagnetic
   12       1.2979        0.3982       0.8996         0.3308       0.9671
   13       0.9425        1.2827      -0.3402        -0.1667       1.1091
   14      26.3720        0.0086      26.3634         0.4539      25.9181
   15       2.0542        1.3255       0.7288         0.3182       1.7360
   18       0.2049       -0.4000       0.6049        -0.8183       1.0232
   23       0.0399       -0.7383       0.7783        -1.0111       1.0510
   27      -0.3772       -1.7231       1.3460        -1.0388       0.6616
 Sum       30.5343        0.1535      30.3808        -1.9319      32.4662

 Contributions to Isotropic shielding for atom   18 (    32.8758 ppm):
                         Standard Origin              Atomic Origin
 NLMO      Total    Paramagnetic  Diamagnetic   Paramagnetic  Diamagnetic
   12       1.3815        0.1392       1.2423         0.4365       0.9450
   13       1.1160        1.0100       0.1060         0.1841       0.9320
   14       2.0734        1.5623       0.5111         0.3609       1.7125
   15      26.4876        0.1678      26.3199         0.4271      26.0605
   16      -0.0598       -0.0349      -0.0249        -1.0103       0.9505
   27      -0.1732       -1.0452       0.8719        -0.7795       0.6062
 Sum       30.8256        1.7993      29.0263        -0.3811      31.2067

 Contributions to Isotropic shielding for atom   19 (    32.5005 ppm):
                         Standard Origin              Atomic Origin
 NLMO      Total    Paramagnetic  Diamagnetic   Paramagnetic  Diamagnetic
    8       1.2439        0.6300       0.6139         0.3170       0.9269
   10       0.1662       -0.5847       0.7509        -1.4088       1.5750
   12       1.1848        0.6903       0.4946         0.2172       0.9677
   16       1.0242        1.2867      -0.2625        -0.0324       1.0566
   17      26.3070        0.1370      26.1700         0.4200      25.8870
   26      -0.0784       -1.3531       1.2747        -0.9635       0.8852
   29      -0.0850       -1.2266       1.1416        -0.9624       0.8774
 Sum       29.7628       -0.4203      30.1831        -2.4130      32.1758

 Contributions to Isotropic shielding for atom   20 (    32.7589 ppm):
                         Standard Origin              Atomic Origin
 NLMO      Total    Paramagnetic  Diamagnetic   Paramagnetic  Diamagnetic
    3      -0.0464       -1.3365       1.2901        -0.9388       0.8924
    5       1.2470        0.6277       0.6193         0.4583       0.7887
   13       1.3981       -0.0641       1.4622         0.4858       0.9123
   18      26.4246        0.1966      26.2281         0.4306      25.9940
   19       1.9498        1.9340       0.0158         0.2081       1.7417
 Sum       30.9731        1.3577      29.6155         0.6441      30.3290

 Contributions to Isotropic shielding for atom   21 (    32.4409 ppm):
                         Standard Origin              Atomic Origin
 NLMO      Total    Paramagnetic  Diamagnetic   Paramagnetic  Diamagnetic
    2      -0.0751       -1.4638       1.3887        -0.9630       0.8880
    5       0.9532        1.2653      -0.3121         0.0708       0.8824
   13       1.2357        0.6908       0.5449         0.2585       0.9772
   15       0.1779        0.1668       0.0111        -0.8383       1.0162
   18       2.0139        1.5881       0.4258         0.2611       1.7528
   19      26.4642       -0.0078      26.4720         0.4846      25.9796
 Sum       30.7698        2.2394      28.5304        -0.7263      31.4961

 Contributions to Isotropic shielding for atom   22 (    32.4345 ppm):
                         Standard Origin              Atomic Origin
 NLMO      Total    Paramagnetic  Diamagnetic   Paramagnetic  Diamagnetic
    3      -0.0448       -1.4144       1.3696        -0.9400       0.8952
    6       1.0795        0.7204       0.3592         0.2512       0.8283
    9       1.4115        0.0092       1.4023         0.5525       0.8590
   10      -0.0706       -0.1076       0.0370        -1.4713       1.4007
   20      26.2436        0.1919      26.0517         0.4376      25.8060
   21       1.9281        1.6903       0.2378         0.1324       1.7957
 Sum       30.5474        1.0899      29.4575        -1.0376      31.5850

 Contributions to Isotropic shielding for atom   23 (    32.7289 ppm):
                         Standard Origin              Atomic Origin
 NLMO      Total    Paramagnetic  Diamagnetic   Paramagnetic  Diamagnetic
    4      -0.0785       -1.5261       1.4476        -0.9657       0.8873
    6       0.9149        1.2635      -0.3486        -0.0003       0.9151
    9       1.2948        0.5630       0.7318         0.4044       0.8904
   10      -0.1946        0.3582      -0.5528        -1.3530       1.1584
   20       2.0030        1.5038       0.4993         0.1600       1.8431
   21      26.5804        0.0293      26.5512         0.4577      26.1227
 Sum       30.5201        2.1915      28.3286        -1.2969      31.8170

 Contributions to Isotropic shielding for atom   24 (    34.9373 ppm):
                         Standard Origin              Atomic Origin
 NLMO      Total    Paramagnetic  Diamagnetic   Paramagnetic  Diamagnetic
    9      -0.1920        0.3502      -0.5422        -1.2798       1.0877
   10       1.3929        2.2265      -0.8336         0.6947       0.6982
   11       0.1342        0.2369      -0.1027        -0.8876       1.0217
   21      -0.0618       -0.5454       0.4836        -1.0219       0.9600
   22      23.1275       -0.5027      23.6302        -0.0824      23.2099
   43       4.1642        0.8071       3.3571         2.2360       1.9281
   44       5.5276        2.3812       3.1464         2.3639       3.1637
 Sum       34.0924        4.9537      29.1387         2.0231      32.0694

 Contributions to Isotropic shielding for atom   25 (    32.6673 ppm):
                         Standard Origin              Atomic Origin
 NLMO      Total    Paramagnetic  Diamagnetic   Paramagnetic  Diamagnetic
   16       1.7569       -0.3835       2.1404         0.7840       0.9728
   23       0.9012        1.7358      -0.8346        -0.0867       0.9879
   24       0.9549        1.5381      -0.5833        -0.0903       1.0452
   25      26.6069        0.0764      26.5305         0.4187      26.1882
   27       0.2052       -0.8462       1.0515        -0.7620       0.9672
   30       0.1710       -0.8486       1.0195        -0.8567       1.0277
 Sum       30.5960        1.2720      29.3240        -0.5930      31.1890

 Contributions to Isotropic shielding for atom   26 (    32.5257 ppm):
                         Standard Origin              Atomic Origin
 NLMO      Total    Paramagnetic  Diamagnetic   Paramagnetic  Diamagnetic
   23       1.5806       -0.9214       2.5020         0.6106       0.9700
   26      26.3425        0.2917      26.0508         0.4150      25.9275
   27       2.0430        0.8295       1.2135         0.2628       1.7801
   28       1.8618        2.2294      -0.3676         0.0537       1.8081
 Sum       31.8278        2.4292      29.3987         1.3422      30.4857

 Contributions to Isotropic shielding for atom   27 (    32.3363 ppm):
                         Standard Origin              Atomic Origin
 NLMO      Total    Paramagnetic  Diamagnetic   Paramagnetic  Diamagnetic
   12      -0.0559        0.2296      -0.2855        -1.0967       1.0408
   23       1.5382       -1.0580       2.5961         0.5285       1.0097
   26       2.0425        0.7705       1.2721         0.2121       1.8304
   27      26.3902        0.2165      26.1737         0.4039      25.9864
   28       1.7982        2.0733      -0.2751        -0.1090       1.9072
 Sum       31.7133        2.2320      29.4813        -0.0612      31.7745

 Contributions to Isotropic shielding for atom   28 (    32.4972 ppm):
                         Standard Origin              Atomic Origin
 NLMO      Total    Paramagnetic  Diamagnetic   Paramagnetic  Diamagnetic
   23       1.2858        0.3050       0.9808         0.2968       0.9890
   24      -0.2453        0.8144      -1.0597        -1.3442       1.0990
   26       1.9402        1.8538       0.0864         0.0890       1.8513
   27       1.9523        1.8809       0.0714         0.0670       1.8853
   28      26.3844       -0.0254      26.4098         0.4780      25.9064
   31      -0.1542       -1.0900       0.9358        -0.9986       0.8444
 Sum       31.1633        3.7386      27.4246        -1.4120      32.5753

 Contributions to Isotropic shielding for atom   29 (    32.2250 ppm):
                         Standard Origin              Atomic Origin
 NLMO      Total    Paramagnetic  Diamagnetic   Paramagnetic  Diamagnetic
   24       1.5116       -0.8056       2.3172         0.5782       0.9335
   29      26.2103        0.3047      25.9056         0.4188      25.7915
   30       2.1032        0.6623       1.4408         0.3063       1.7968
   31       1.8434        2.1923      -0.3488         0.0461       1.7974
   43      -0.6118       -0.0241      -0.5878         0.4479      -1.0597
 Sum       31.0567        2.3296      28.7270         1.7972      29.2595

 Contributions to Isotropic shielding for atom   30 (    31.8541 ppm):
                         Standard Origin              Atomic Origin
 NLMO      Total    Paramagnetic  Diamagnetic   Paramagnetic  Diamagnetic
    8      -0.1026        0.1436      -0.2462        -1.0976       0.9950
   10       0.0889       -0.1639       0.2529        -1.0693       1.1583
   24       1.5151       -0.9557       2.4709         0.5138       1.0014
   29       2.0712        0.6221       1.4491         0.2426       1.8286
   30      26.1582        0.2761      25.8821         0.4048      25.7533
   31       1.7874        1.9914      -0.2040        -0.1190       1.9064
   43      -0.2781       -0.0591      -0.2190         0.7921      -1.0702
 Sum       31.2401        1.8544      29.3857        -0.3327      31.5728

 Contributions to Isotropic shielding for atom   31 (    32.5629 ppm):
                         Standard Origin              Atomic Origin
 NLMO      Total    Paramagnetic  Diamagnetic   Paramagnetic  Diamagnetic
   23      -0.2590        0.7341      -0.9930        -1.3881       1.1291
   24       1.2224        0.4909       0.7316         0.2870       0.9354
   28      -0.1530       -1.2058       1.0528        -1.0174       0.8645
   29       1.9626        1.8387       0.1239         0.0882       1.8744
   30       1.9960        1.8121       0.1840         0.0884       1.9077
   31      26.5267       -0.0341      26.5607         0.4763      26.0503
 Sum       31.2958        3.6359      27.6599        -1.4656      32.7614
 
 1\1\GINC-COMPUTE-6-4\SP\RHF\STO-3G\C10H20O1\YTSAI.IQUIR\03-Aug-2021\0\
 \# rhf/STO-3G nmr pop=nbo\\comment\\0,1\C,0,0.470847641,0.08005401,-3.
 718649311\C,0,-0.101209455,0.017657997,-2.303775095\C,0,0.004287795,-1
 .208589802,-0.077463547\C,0,-0.441119676,1.290770563,-0.154093047\C,0,
 0.118214687,0.128715026,0.698318955\C,0,0.124106764,1.337551346,-1.570
 039994\C,0,0.533795529,-1.121697879,-1.512219558\O,0,0.767577406,-2.22
 161029,0.575936134\C,0,-0.59239193,0.093588668,2.097481287\C,0,-0.4386
 2437,1.422047163,2.855094622\C,0,-0.102771476,-1.032223769,3.015606742
 \H,0,-0.000794048,0.884657055,-4.292584181\H,0,1.55090084,0.261971265,
 -3.705427574\H,0,0.292466493,-0.86012809,-4.251067953\H,0,-1.180923418
 ,-0.165330159,-2.38235318\H,0,-1.043706404,-1.532241421,-0.091403083\H
 ,0,-0.213956146,2.252246741,0.318497425\H,0,-1.534514429,1.211574996,-
 0.2086045\H,0,1.185750014,0.319496597,0.879650423\H,0,1.19630959,1.567
 864147,-1.524806904\H,0,-0.352954907,2.157745624,-2.120001282\H,0,1.62
 6278072,-1.005174676,-1.489075045\H,0,0.35534786,-2.078211261,-2.02071
 6684\H,0,0.618698738,-3.056309992,0.099791306\H,0,-1.666560583,-0.0660
 33879,1.9333137\H,0,0.615745857,1.701836114,2.951513037\H,0,-0.9695820
 49,2.236375589,2.35384128\H,0,-0.862606941,1.351461812,3.863022529\H,0
 ,0.989023092,-1.032218769,3.098114765\H,0,-0.432741158,-2.011158175,2.
 656746906\H,0,-0.514893387,-0.924686548,4.025351826\\Version=EM64L-G09
 RevC.01\State=1-A\HF=-459.6195226\RMSD=5.432e-09\Dipole=-0.3039956,-0.
 0293002,-0.4604194\Quadrupole=-0.1682595,1.5935192,-1.4252597,1.230836
 8,-0.5514272,1.8931096\PG=C01 [X(C10H20O1)]\\@


 THERE'S A SUCKER BORN EVERY MINUTE

              -- PHINEAS TAYLOR (P.T.) BARNUM
 Job cpu time:  0 days  0 hours  0 minutes 48.1 seconds.
 File lengths (MBytes):  RWF=      5 Int=      0 D2E=      0 Chk=      1 Scr=      1
 Normal termination of Gaussian 09 at Tue Aug  3 16:33:42 2021.
