 Entering Gaussian System, Link 0=g09
 Input=/home/ytsai.iquir/menthol/01_menthol_M0010_MMFF_NMR_rhf_STO-3G_nbo.gjc
 Output=/home/ytsai.iquir/menthol/01_menthol_M0010_MMFF_NMR_rhf_STO-3G_nbo.log
 Initial command:
 /share/apps/Gaussian09/EM64T.SSE4.2-enabled/g09/l1.exe /tmp/Gau-134097.inp -scrdir=/tmp/
 Entering Link 1 = /share/apps/Gaussian09/EM64T.SSE4.2-enabled/g09/l1.exe PID=    134098.
  
 Copyright (c) 1988,1990,1992,1993,1995,1998,2003,2009,2011,
            Gaussian, Inc.  All Rights Reserved.
  
 This is part of the Gaussian(R) 09 program.  It is based on
 the Gaussian(R) 03 system (copyright 2003, Gaussian, Inc.),
 the Gaussian(R) 98 system (copyright 1998, Gaussian, Inc.),
 the Gaussian(R) 94 system (copyright 1995, Gaussian, Inc.),
 the Gaussian 92(TM) system (copyright 1992, Gaussian, Inc.),
 the Gaussian 90(TM) system (copyright 1990, Gaussian, Inc.),
 the Gaussian 88(TM) system (copyright 1988, Gaussian, Inc.),
 the Gaussian 86(TM) system (copyright 1986, Carnegie Mellon
 University), and the Gaussian 82(TM) system (copyright 1983,
 Carnegie Mellon University). Gaussian is a federally registered
 trademark of Gaussian, Inc.
  
 This software contains proprietary and confidential information,
 including trade secrets, belonging to Gaussian, Inc.
  
 This software is provided under written license and may be
 used, copied, transmitted, or stored only in accord with that
 written license.
  
 The following legend is applicable only to US Government
 contracts under FAR:
  
                    RESTRICTED RIGHTS LEGEND
  
 Use, reproduction and disclosure by the US Government is
 subject to restrictions as set forth in subparagraphs (a)
 and (c) of the Commercial Computer Software - Restricted
 Rights clause in FAR 52.227-19.
  
 Gaussian, Inc.
 340 Quinnipiac St., Bldg. 40, Wallingford CT 06492
  
  
 ---------------------------------------------------------------
 Warning -- This program may not be used in any manner that
 competes with the business of Gaussian, Inc. or will provide
 assistance to any competitor of Gaussian, Inc.  The licensee
 of this program is prohibited from giving any competitor of
 Gaussian, Inc. access to this program.  By using this program,
 the user acknowledges that Gaussian, Inc. is engaged in the
 business of creating and licensing software in the field of
 computational chemistry and represents and warrants to the
 licensee that it is not a competitor of Gaussian, Inc. and that
 it will not use this program in any manner prohibited above.
 ---------------------------------------------------------------
  

 Cite this work as:
 Gaussian 09, Revision C.01,
 M. J. Frisch, G. W. Trucks, H. B. Schlegel, G. E. Scuseria, 
 M. A. Robb, J. R. Cheeseman, G. Scalmani, V. Barone, B. Mennucci, 
 G. A. Petersson, H. Nakatsuji, M. Caricato, X. Li, H. P. Hratchian, 
 A. F. Izmaylov, J. Bloino, G. Zheng, J. L. Sonnenberg, M. Hada, 
 M. Ehara, K. Toyota, R. Fukuda, J. Hasegawa, M. Ishida, T. Nakajima, 
 Y. Honda, O. Kitao, H. Nakai, T. Vreven, J. A. Montgomery, Jr., 
 J. E. Peralta, F. Ogliaro, M. Bearpark, J. J. Heyd, E. Brothers, 
 K. N. Kudin, V. N. Staroverov, T. Keith, R. Kobayashi, J. Normand, 
 K. Raghavachari, A. Rendell, J. C. Burant, S. S. Iyengar, J. Tomasi, 
 M. Cossi, N. Rega, J. M. Millam, M. Klene, J. E. Knox, J. B. Cross, 
 V. Bakken, C. Adamo, J. Jaramillo, R. Gomperts, R. E. Stratmann, 
 O. Yazyev, A. J. Austin, R. Cammi, C. Pomelli, J. W. Ochterski, 
 R. L. Martin, K. Morokuma, V. G. Zakrzewski, G. A. Voth, 
 P. Salvador, J. J. Dannenberg, S. Dapprich, A. D. Daniels, 
 O. Farkas, J. B. Foresman, J. V. Ortiz, J. Cioslowski, 
 and D. J. Fox, Gaussian, Inc., Wallingford CT, 2010.
 
 ******************************************
 Gaussian 09:  EM64L-G09RevC.01 23-Sep-2011
                 3-Aug-2021 
 ******************************************
 %nprocshared=4
 Will use up to    4 processors via shared memory.
 ------------------------
 # rhf/STO-3G nmr pop=nbo
 ------------------------
 1/38=1/1;
 2/12=2,17=6,18=5,40=1/2;
 3/6=3,11=1,16=1,25=1,30=1,116=1/1,2,8,3;
 4//1;
 5/5=2,38=5/2;
 8/6=1,10=90,11=11/1;
 10/13=100,45=16/2;
 6/7=2,8=2,9=2,10=2,28=1,64=1/1,7;
 99/9=1/99;
 -------
 comment
 -------
 Charge =  0 Multiplicity = 1
 Symbolic Z-Matrix:
 6                     0.85262   0.42349  -3.58238 
 6                     0.15449   0.31174  -2.22844 
 6                    -0.00304  -1.04135  -0.08194 
 6                    -0.27825   1.46878  -0.02288 
 6                     0.21446   0.23444   0.76088 
 6                     0.37918   1.57792  -1.39704 
 6                     0.64379  -0.92193  -1.46649 
 8                     0.56806  -2.16846   0.57275 
 6                    -0.41562   0.21221   2.18795 
 6                     0.36128  -0.67511   3.16679 
 6                    -1.89707  -0.17353   2.21207 
 1                     0.66841  -0.4695   -4.18888 
 1                     0.48129   1.28966  -4.14013 
 1                     1.93584   0.53546  -3.46482 
 1                    -0.92258   0.20205  -2.41221 
 1                    -1.07497  -1.23305  -0.20616 
 1                    -0.06149   2.38173   0.54468 
 1                    -1.36566   1.42739  -0.15547 
 1                     1.29851   0.35488   0.90426 
 1                     1.45413   1.75987  -1.27074 
 1                    -0.02987   2.4483   -1.924 
 1                     1.73651  -0.89401  -1.35613 
 1                     0.4323   -1.83034  -2.04527 
 1                     0.38162  -2.95197   0.02792 
 1                    -0.34217   1.23366   2.58664 
 1                     0.21407  -1.74012   2.96784 
 1                     1.4338   -0.45887   3.12957 
 1                     0.02422  -0.49056   4.19316 
 1                    -2.05007  -1.21416   1.90905 
 1                    -2.49176   0.4669    1.55485 
 1                    -2.30202  -0.0655    3.22457 
 
                          Input orientation:                          
 ---------------------------------------------------------------------
 Center     Atomic      Atomic             Coordinates (Angstroms)
 Number     Number       Type             X           Y           Z
 ---------------------------------------------------------------------
      1          6           0        0.852624    0.423490   -3.582384
      2          6           0        0.154488    0.311745   -2.228439
      3          6           0       -0.003039   -1.041351   -0.081938
      4          6           0       -0.278252    1.468776   -0.022882
      5          6           0        0.214460    0.234435    0.760883
      6          6           0        0.379176    1.577921   -1.397043
      7          6           0        0.643786   -0.921935   -1.466487
      8          8           0        0.568064   -2.168464    0.572747
      9          6           0       -0.415624    0.212209    2.187954
     10          6           0        0.361282   -0.675107    3.166786
     11          6           0       -1.897067   -0.173531    2.212075
     12          1           0        0.668408   -0.469505   -4.188882
     13          1           0        0.481293    1.289661   -4.140126
     14          1           0        1.935840    0.535458   -3.464825
     15          1           0       -0.922583    0.202046   -2.412213
     16          1           0       -1.074974   -1.233049   -0.206161
     17          1           0       -0.061487    2.381727    0.544681
     18          1           0       -1.365663    1.427389   -0.155472
     19          1           0        1.298513    0.354882    0.904263
     20          1           0        1.454127    1.759872   -1.270737
     21          1           0       -0.029869    2.448298   -1.924000
     22          1           0        1.736513   -0.894010   -1.356133
     23          1           0        0.432301   -1.830340   -2.045270
     24          1           0        0.381616   -2.951966    0.027917
     25          1           0       -0.342172    1.233659    2.586644
     26          1           0        0.214070   -1.740116    2.967843
     27          1           0        1.433802   -0.458873    3.129568
     28          1           0        0.024220   -0.490560    4.193158
     29          1           0       -2.050065   -1.214162    1.909055
     30          1           0       -2.491763    0.466903    1.554851
     31          1           0       -2.302024   -0.065501    3.224569
 ---------------------------------------------------------------------
                    Distance matrix (angstroms):
                    1          2          3          4          5
     1  C    0.000000
     2  C    1.527432   0.000000
     3  C    3.889864   2.542272   0.000000
     4  C    3.878344   2.527937   2.525860   0.000000
     5  C    4.393968   2.990922   1.544437   1.542935   0.000000
     6  C    2.516461   1.531308   2.955703   1.527234   2.547299
     7  C    2.516108   1.530343   1.532847   2.941028   2.546112
     8  O    4.905539   3.764189   1.423079   3.781606   2.436054
     9  C    5.911842   4.454150   2.625652   2.546690   1.560138
    10  C    6.855627   5.488633   3.289540   3.896052   2.576275
    11  C    6.441504   4.915539   3.098863   3.211349   2.594406
    12  H    1.095088   2.172051   4.200576   4.691338   5.020137
    13  H    1.095086   2.172019   4.705006   4.190547   5.020417
    14  H    1.095315   2.179889   4.205889   4.197649   4.572785
    15  H    2.137685   1.098129   2.796745   2.780048   3.370824
    16  H    4.225948   2.826229   1.096004   2.822803   2.179754
    17  H    4.658643   3.467228   3.480450   1.096629   2.175719
    18  H    4.203847   2.802268   2.820786   1.096246   2.181659
    19  H    4.509271   3.335338   2.148511   2.141623   1.100108
    20  H    2.737048   2.168716   3.373933   2.154766   2.826873
    21  H    2.762042   2.165994   3.946082   2.152999   3.488478
    22  H    2.733726   2.171996   2.161324   3.379289   2.841090
    23  H    2.760279   2.167778   2.160254   3.934350   3.490737
    24  H    4.964859   3.974234   1.952044   4.470007   3.273887
    25  H    6.335677   4.927638   3.523068   2.620876   2.154458
    26  H    6.927800   5.587041   3.136331   4.414046   2.961339
    27  H    6.794603   5.562260   3.566169   4.072457   2.752843
    28  H    7.872787   6.472833   4.310517   4.658914   3.513164
    29  H    6.423660   4.930243   2.860810   3.750981   2.923151
    30  H    6.130088   4.619523   3.338810   2.897002   2.829853
    31  H    7.518345   5.992667   4.143743   4.122572   3.534460
                    6          7          8          9         10
     6  C    0.000000
     7  C    2.514780   0.000000
     8  O    4.236880   2.391243   0.000000
     9  C    3.917790   3.970336   3.040417   0.000000
    10  C    5.089695   4.648435   3.000319   1.532653   0.000000
    11  C    4.612440   4.532975   3.569878   1.531029   2.502637
    12  H    3.474187   2.759844   5.056644   6.504144   7.364948
    13  H    2.760076   3.473601   5.846137   6.481508   7.567408
    14  H    2.790278   2.790475   5.048167   6.130887   6.922641
    15  H    2.148994   2.147381   4.092839   4.628028   5.791626
    16  H    3.381465   2.153915   2.044816   2.873204   3.708221
    17  H    2.147227   3.931461   4.593622   2.744552   4.049494
    18  H    2.146770   3.357971   4.147260   2.805510   4.294209
    19  H    2.763516   2.771170   2.647779   2.146272   2.656744
    20  H    1.097534   2.808390   4.428923   4.225372   5.178324
    21  H    1.096611   3.467217   5.282590   4.696494   5.985378
    22  H    2.820369   1.098639   2.590383   4.291382   4.732438
    23  H    3.469764   1.097687   2.643250   4.776103   5.339020
    24  H    4.748725   2.534364   0.972357   3.913228   3.877757
    25  H    4.063081   4.695377   4.056939   1.098958   2.115372
    26  H    5.485332   4.529609   2.458715   2.194610   1.093386
    27  H    5.074542   4.686392   3.195237   2.181138   1.094734
    28  H    5.971177   5.709774   4.027220   2.169836   1.095951
    29  H    4.962583   4.328570   3.090472   2.187171   2.772556
    30  H    4.265012   4.570451   4.155987   2.185416   3.470214
    31  H    5.590078   5.605112   4.437569   2.170300   2.732794
                   11         12         13         14         15
    11  C    0.000000
    12  H    6.902283   0.000000
    13  H    6.938874   1.769760   0.000000
    14  H    6.886293   1.772172   1.772162   0.000000
    15  H    4.740750   2.477658   2.477792   3.064268   0.000000
    16  H    2.765191   4.414119   4.925658   4.776139   2.636169
    17  H    3.560744   5.573948   4.840933   4.845014   3.773025
    18  H    2.906994   4.899392   4.394050   4.758915   2.605890
    19  H    3.493039   5.197767   5.194951   4.419018   3.994451
    20  H    5.205624   3.755403   3.066089   2.558370   3.062440
    21  H    5.240947   3.759103   2.552438   3.145967   2.465955
    22  H    5.143355   3.057044   3.754279   2.555326   3.063892
    23  H    5.127958   2.550038   3.758354   3.142096   2.470010
    24  H    4.205073   4.901659   5.947597   5.174648   4.195588
    25  H    2.130300   7.059022   6.777216   6.503622   5.137088
    26  H    2.735374   7.282829   7.731376   7.037183   5.831721
    27  H    3.466685   7.358373   7.537446   6.687806   6.058111
    28  H    2.777866   8.406784   8.533564   7.959378   6.708730
    29  H    1.094597   6.717846   7.019223   6.915721   4.685106
    30  H    1.093509   6.622236   6.476785   6.693691   4.274350
    31  H    1.095813   7.996621   7.988870   7.941576   5.809281
                   16         17         18         19         20
    16  H    0.000000
    17  H    3.828516   0.000000
    18  H    2.676752   1.761208   0.000000
    19  H    3.063986   2.467185   3.061233   0.000000
    20  H    4.060450   2.445308   3.050504   2.594000   0.000000
    21  H    4.194702   2.469781   2.440141   3.761125   1.761513
    22  H    3.056442   4.192416   4.056350   2.619345   2.670229
    23  H    2.451725   4.969224   4.173345   3.771640   3.812303
    24  H    2.265198   5.376957   4.718619   3.541741   5.003818
    25  H    3.797553   2.359334   2.933303   2.508885   4.287537
    26  H    3.463099   4.789283   4.720566   3.134230   5.634999
    27  H    4.245044   4.121473   4.710253   2.373285   4.928075
    28  H    4.594946   4.644218   4.951857   3.627040   6.079738
    29  H    2.329227   4.329709   3.421765   3.832034   5.588857
    30  H    2.828125   3.254725   2.261822   3.847337   5.022525
    31  H    3.826060   4.265059   3.811846   4.304000   6.135832
                   21         22         23         24         25
    21  H    0.000000
    22  H    3.822774   0.000000
    23  H    4.305235   1.747167   0.000000
    24  H    5.756921   2.826043   2.357693   0.000000
    25  H    4.681750   4.938967   5.607363   4.958871   0.000000
    26  H    6.444567   4.661598   5.018672   3.184308   3.049271
    27  H    6.011034   4.516912   5.446364   4.116169   2.512671
    28  H    6.786709   5.821456   6.393709   4.851338   2.384966
    29  H    5.673369   5.010202   4.709406   3.531532   3.060695
    30  H    4.699920   5.310765   5.175745   4.719798   2.504645
    31  H    6.163573   6.162714   6.193738   5.074661   2.436346
                   26         27         28         29         30
    26  H    0.000000
    27  H    1.776369   0.000000
    28  H    1.760349   1.766111   0.000000
    29  H    2.554206   3.767950   3.169130   0.000000
    30  H    3.766830   4.329764   3.769293   1.773848   0.000000
    31  H    3.033310   3.757681   2.555436   1.764506   1.762786
                   31
    31  H    0.000000
 Stoichiometry    C10H20O
 Framework group  C1[X(C10H20O)]
 Deg. of freedom    87
 Full point group                 C1      NOp   1
 Largest Abelian subgroup         C1      NOp   1
 Largest concise Abelian subgroup C1      NOp   1
                         Standard orientation:                         
 ---------------------------------------------------------------------
 Center     Atomic      Atomic             Coordinates (Angstroms)
 Number     Number       Type             X           Y           Z
 ---------------------------------------------------------------------
      1          6           0        3.724920    0.134340   -0.004698
      2          6           0        2.258410   -0.117904    0.339931
      3          6           0       -0.075178    0.890815    0.338865
      4          6           0        0.243655   -1.570527   -0.130294
      5          6           0       -0.623519   -0.330370   -0.431405
      6          6           0        1.720894   -1.326592   -0.431467
      7          6           0        1.411675    1.122775    0.047180
      8          8           0       -0.783509    2.067615   -0.033374
      9          6           0       -2.131212   -0.653099   -0.193209
     10          6           0       -3.068673    0.329236   -0.903991
     11          6           0       -2.523132   -0.758104    1.283078
     12          1           0        4.118170    0.980731    0.568183
     13          1           0        4.335691   -0.743180    0.232224
     14          1           0        3.851932    0.357851   -1.069416
     15          1           0        2.196856   -0.334881    1.414650
     16          1           0       -0.207184    0.746771    1.417313
     17          1           0       -0.101996   -2.421536   -0.729382
     18          1           0        0.142418   -1.860432    0.922065
     19          1           0       -0.519762   -0.117224   -1.505668
     20          1           0        1.849830   -1.172613   -1.510469
     21          1           0        2.295024   -2.223092   -0.168372
     22          1           0        1.533110    1.429322   -1.000814
     23          1           0        1.769998    1.972299    0.642856
     24          1           0       -0.431306    2.803704    0.495403
     25          1           0       -2.324693   -1.634434   -0.648462
     26          1           0       -3.090240    1.308111   -0.417338
     27          1           0       -2.776742    0.466744   -1.950083
     28          1           0       -4.094833   -0.055543   -0.896992
     29          1           0       -2.441384    0.206541    1.793882
     30          1           0       -1.900909   -1.482826    1.815411
     31          1           0       -3.562938   -1.090647    1.378069
 ---------------------------------------------------------------------
 Rotational constants (GHZ):      1.9198177      0.6795848      0.5756097
 Standard basis: STO-3G (5D, 7F)
 There are    75 symmetry adapted basis functions of A   symmetry.
 Integral buffers will be    131072 words long.
 Raffenetti 1 integral format.
 Two-electron integral symmetry is turned on.
    75 basis functions,   225 primitive gaussians,    75 cartesian basis functions
    44 alpha electrons       44 beta electrons
       nuclear repulsion energy       690.7668839352 Hartrees.
 NAtoms=   31 NActive=   31 NUniq=   31 SFac= 1.00D+00 NAtFMM=   60 NAOKFM=F Big=F
 One-electron integrals computed using PRISM.
 NBasis=    75 RedAO= T  NBF=    75
 NBsUse=    75 1.00D-06 NBFU=    75
 Harris functional with IExCor=  205 diagonalized for initial guess.
 ExpMin= 1.69D-01 ExpMax= 1.31D+02 ExpMxC= 1.31D+02 IAcc=1 IRadAn=         1 AccDes= 0.00D+00
 HarFok:  IExCor=  205 AccDes= 0.00D+00 IRadAn=         1 IDoV= 1
 ScaDFX=  1.000000  1.000000  1.000000  1.000000
 FoFCou: FMM=F IPFlag=           0 FMFlag=      100000 FMFlg1=           0
         NFxFlg=           0 DoJE=T BraDBF=F KetDBF=T FulRan=T
         Omega=  0.000000  0.000000  1.000000  0.000000  0.000000 ICntrl=     500 IOpCl=  0
         NMat0=    1 NMatS0=    1 NMatT0=    0 NMatD0=    1 NMtDS0=    0 NMtDT0=    0
         I1Cent=           4 NGrid=           0.
 Petite list used in FoFCou.
 Initial guess orbital symmetries:
       Occupied  (A) (A) (A) (A) (A) (A) (A) (A) (A) (A) (A) (A)
                 (A) (A) (A) (A) (A) (A) (A) (A) (A) (A) (A) (A)
                 (A) (A) (A) (A) (A) (A) (A) (A) (A) (A) (A) (A)
                 (A) (A) (A) (A) (A) (A) (A) (A)
       Virtual   (A) (A) (A) (A) (A) (A) (A) (A) (A) (A) (A) (A)
                 (A) (A) (A) (A) (A) (A) (A) (A) (A) (A) (A) (A)
                 (A) (A) (A) (A) (A) (A) (A)
 The electronic state of the initial guess is 1-A.
 Requested convergence on RMS density matrix=1.00D-08 within 128 cycles.
 Requested convergence on MAX density matrix=1.00D-06.
 Requested convergence on             energy=1.00D-06.
 No special actions if energy rises.
 Keep R1 ints in memory in canonical form, NReq=4898789.
 SCF Done:  E(RHF) =  -459.622162659     A.U. after   10 cycles
             Convg  =    0.6491D-08             -V/T =  2.0090
 Range of M.O.s used for correlation:     1    75
 NBasis=    75 NAE=    44 NBE=    44 NFC=     0 NFV=     0
 NROrb=     75 NOA=    44 NOB=    44 NVA=    31 NVB=    31
          Differentiating once with respect to magnetic field using GIAOs.
          Electric field/nuclear overlap derivatives assumed to be zero.
          Keep R3 ints in memory in canonical form, NReq=4863575.
 FoFCou: FMM=F IPFlag=           0 FMFlag=           0 FMFlg1=           0
         NFxFlg=           0 DoJE=F BraDBF=F KetDBF=T FulRan=T
         Omega=  0.000000  0.000000  1.000000  0.000000  0.000000 ICntrl=    6100 IOpCl=  0
         NMat0=    1 NMatS0=    1 NMatT0=    0 NMatD0=    1 NMtDS0=    0 NMtDT0=    0
         I1Cent=           7 NGrid=          31.
 Symmetry not used in FoFCou.
          There are     3 degrees of freedom in the 1st order CPHF.  IDoFFX=0.
      3 vectors produced by pass  0 Test12= 4.55D-14 3.33D-08 XBig12= 7.66D+00 4.18D-01.
 AX will form     3 AO Fock derivatives at one time.
      3 vectors produced by pass  1 Test12= 4.55D-14 3.33D-08 XBig12= 1.19D-02 1.61D-02.
      3 vectors produced by pass  2 Test12= 4.55D-14 3.33D-08 XBig12= 7.37D-05 2.80D-03.
      3 vectors produced by pass  3 Test12= 4.55D-14 3.33D-08 XBig12= 1.54D-06 4.30D-04.
      3 vectors produced by pass  4 Test12= 4.55D-14 3.33D-08 XBig12= 1.64D-08 1.84D-05.
      3 vectors produced by pass  5 Test12= 4.55D-14 3.33D-08 XBig12= 1.87D-10 2.03D-06.
      3 vectors produced by pass  6 Test12= 4.55D-14 3.33D-08 XBig12= 1.70D-12 1.80D-07.
 Inverted reduced A of dimension    21 with in-core refinement.
 Calculating GIAO nuclear magnetic shielding tensors.
 SCF GIAO Magnetic shielding tensor (ppm):
      1  C    Isotropic =   221.1698   Anisotropy =    28.2822
   XX=   239.1003   YX=     3.4194   ZX=    -1.6553
   XY=     4.2439   YY=   213.0160   ZY=     0.0591
   XZ=    -4.9042   YZ=    -0.3718   ZZ=   211.3933
   Eigenvalues:   210.9563   212.5286   240.0247
      2  C    Isotropic =   215.2334   Anisotropy =     7.9709
   XX=   219.9255   YX=     0.5480   ZX=     1.2841
   XY=     1.9665   YY=   216.9074   ZY=     1.8691
   XZ=     0.2599   YZ=     1.8718   ZZ=   208.8674
   Eigenvalues:   208.4329   216.7200   220.5474
      3  C    Isotropic =   188.3364   Anisotropy =    41.3277
   XX=   188.1930   YX=   -14.2657   ZX=     6.4999
   XY=   -13.4703   YY=   206.9072   ZY=    -4.0174
   XZ=     7.3651   YZ=    -8.0257   ZZ=   169.9090
   Eigenvalues:   167.5216   181.5994   215.8882
      4  C    Isotropic =   215.7022   Anisotropy =    18.3486
   XX=   226.2465   YX=    -2.5553   ZX=    -0.3556
   XY=    -4.9064   YY=   219.2691   ZY=    -0.5758
   XZ=     3.1268   YZ=     0.1939   ZZ=   201.5911
   Eigenvalues:   201.5134   217.6586   227.9346
      5  C    Isotropic =   208.6881   Anisotropy =    15.1575
   XX=   218.4172   YX=     0.3349   ZX=    -1.9761
   XY=     1.3334   YY=   204.8848   ZY=     1.0255
   XZ=    -2.6082   YZ=    -0.8070   ZZ=   202.7623
   Eigenvalues:   202.4125   204.8587   218.7931
      6  C    Isotropic =   215.5945   Anisotropy =    16.7317
   XX=   221.1594   YX=     5.3551   ZX=    -1.0407
   XY=     8.0638   YY=   216.6773   ZY=     5.5719
   XZ=     2.7061   YZ=     4.3740   ZZ=   208.9466
   Eigenvalues:   206.1068   213.9277   226.7489
      7  C    Isotropic =   213.2201   Anisotropy =    24.4047
   XX=   226.9621   YX=    -7.1103   ZX=    -2.1471
   XY=    -6.2287   YY=   211.2318   ZY=    -1.5234
   XZ=    -1.3007   YZ=     0.8546   ZZ=   201.4665
   Eigenvalues:   201.2765   208.8940   229.4899
      8  O    Isotropic =   355.9576   Anisotropy =    88.1990
   XX=   348.2726   YX=    38.1837   ZX=    10.9225
   XY=    17.0848   YY=   372.7697   ZY=    28.5095
   XZ=    19.4739   YZ=    47.5322   ZZ=   346.8304
   Eigenvalues:   318.8309   334.2849   414.7569
      9  C    Isotropic =   211.8761   Anisotropy =    18.9569
   XX=   224.2969   YX=     1.6291   ZX=     1.2006
   XY=     1.8750   YY=   206.7689   ZY=    -1.8503
   XZ=    -2.8118   YZ=    -0.8030   ZZ=   204.5625
   Eigenvalues:   203.9402   207.1740   224.5140
     10  C    Isotropic =   220.1491   Anisotropy =    27.4792
   XX=   224.3399   YX=    -8.5391   ZX=     9.3455
   XY=   -10.3403   YY=   216.5926   ZY=   -11.3095
   XZ=     6.0592   YZ=    -8.7112   ZZ=   219.5147
   Eigenvalues:   207.4899   214.4887   238.4685
     11  C    Isotropic =   224.0176   Anisotropy =    20.2021
   XX=   219.5682   YX=     1.9168   ZX=    -6.0206
   XY=     0.4408   YY=   216.9720   ZY=    -2.5838
   XZ=    -3.5753   YZ=    -4.2856   ZZ=   235.5125
   Eigenvalues:   216.3078   218.2593   237.4856
     12  H    Isotropic =    32.5117   Anisotropy =    13.6197
   XX=    35.3791   YX=     5.1936   ZX=     3.1086
   XY=     5.0258   YY=    33.2987   ZY=     4.3694
   XZ=     3.0184   YZ=     4.1417   ZZ=    28.8573
   Eigenvalues:    26.2777    29.6659    41.5915
     13  H    Isotropic =    32.4547   Anisotropy =    13.8639
   XX=    37.9108   YX=    -5.5983   ZX=     1.7475
   XY=    -5.2738   YY=    32.8284   ZY=    -1.4973
   XZ=     1.6909   YZ=    -1.3670   ZZ=    26.6248
   Eigenvalues:    26.2723    29.3945    41.6972
     14  H    Isotropic =    32.6480   Anisotropy =    11.6522
   XX=    33.4876   YX=     1.4901   ZX=    -4.5754
   XY=     1.5501   YY=    27.8639   ZY=    -2.3357
   XZ=    -4.4290   YZ=    -2.3140   ZZ=    36.5925
   Eigenvalues:    27.2463    30.2816    40.4162
     15  H    Isotropic =    32.9161   Anisotropy =    10.7079
   XX=    31.5902   YX=     0.0732   ZX=     1.4869
   XY=    -0.0222   YY=    27.8025   ZY=    -2.2327
   XZ=     1.5919   YZ=    -2.3081   ZZ=    39.3557
   Eigenvalues:    27.3484    31.3453    40.0547
     16  H    Isotropic =    32.2012   Anisotropy =     6.6308
   XX=    31.6350   YX=     0.7461   ZX=    -1.2322
   XY=     1.3831   YY=    29.0007   ZY=     0.4440
   XZ=    -2.3490   YZ=     0.8886   ZZ=    35.9679
   Eigenvalues:    28.4087    31.5731    36.6217
     17  H    Isotropic =    32.4121   Anisotropy =    13.3670
   XX=    31.8694   YX=     2.0942   ZX=     1.2940
   XY=     2.3661   YY=    37.9089   ZY=     5.9976
   XZ=     1.2635   YZ=     5.9769   ZZ=    27.4580
   Eigenvalues:    24.7280    31.1849    41.3234
     18  H    Isotropic =    32.6864   Anisotropy =     9.8029
   XX=    32.3684   YX=    -0.5215   ZX=    -1.9782
   XY=    -0.0376   YY=    31.1553   ZY=    -5.6276
   XZ=    -2.0039   YZ=    -6.0391   ZZ=    34.5356
   Eigenvalues:    26.4237    32.4139    39.2217
     19  H    Isotropic =    32.3834   Anisotropy =     8.9998
   XX=    32.0649   YX=    -0.3253   ZX=    -0.0615
   XY=    -0.2494   YY=    26.8871   ZY=    -1.4002
   XZ=     0.6250   YZ=    -1.3885   ZZ=    38.1983
   Eigenvalues:    26.7059    32.0611    38.3833
     20  H    Isotropic =    32.7280   Anisotropy =    11.1449
   XX=    31.4208   YX=     0.2926   ZX=    -3.1955
   XY=     0.2665   YY=    28.1379   ZY=     2.3175
   XZ=    -2.9567   YZ=     2.5268   ZZ=    38.6254
   Eigenvalues:    27.3448    30.6813    40.1580
     21  H    Isotropic =    32.4273   Anisotropy =    14.1264
   XX=    33.7894   YX=    -5.2940   ZX=     0.7651
   XY=    -5.3444   YY=    38.2430   ZY=    -0.4367
   XZ=     1.0176   YZ=    -0.8154   ZZ=    25.2493
   Eigenvalues:    25.1567    30.2802    41.8448
     22  H    Isotropic =    32.4624   Anisotropy =     9.9483
   XX=    31.6612   YX=     0.3974   ZX=    -2.6322
   XY=     0.4719   YY=    30.9865   ZY=    -5.1778
   XZ=    -2.1030   YZ=    -5.3352   ZZ=    34.7394
   Eigenvalues:    27.0395    31.2531    39.0946
     23  H    Isotropic =    32.7696   Anisotropy =    12.3885
   XX=    32.8176   YX=     2.5112   ZX=     1.5934
   XY=     2.6108   YY=    37.4308   ZY=     5.2661
   XZ=     2.1668   YZ=     5.4090   ZZ=    28.0602
   Eigenvalues:    25.5777    31.7024    41.0286
     24  H    Isotropic =    35.0419   Anisotropy =    19.1420
   XX=    30.5533   YX=     1.0422   ZX=     3.6209
   XY=    -0.1538   YY=    45.1032   ZY=     6.2888
   XZ=     2.8815   YZ=     7.3489   ZZ=    29.4692
   Eigenvalues:    25.2934    32.0290    47.8032
     25  H    Isotropic =    32.4742   Anisotropy =    11.9930
   XX=    31.8235   YX=     2.6467   ZX=     2.0067
   XY=     2.5623   YY=    37.0561   ZY=     5.1189
   XZ=     1.8327   YZ=     4.7213   ZZ=    28.5430
   Eigenvalues:    26.2032    30.7499    40.4695
     26  H    Isotropic =    31.8859   Anisotropy =     9.4145
   XX=    31.6883   YX=    -2.5623   ZX=     1.5030
   XY=    -2.7271   YY=    36.8841   ZY=     2.0548
   XZ=     1.4070   YZ=     2.0501   ZZ=    27.0854
   Eigenvalues:    25.9526    31.5429    38.1623
     27  H    Isotropic =    32.3373   Anisotropy =    12.1051
   XX=    30.5805   YX=    -0.9134   ZX=     1.7300
   XY=    -0.6517   YY=    27.1671   ZY=    -3.5439
   XZ=     1.4548   YZ=    -3.0327   ZZ=    39.2643
   Eigenvalues:    26.2981    30.3064    40.4074
     28  H    Isotropic =    32.4216   Anisotropy =    14.9176
   XX=    41.5792   YX=     1.8952   ZX=     3.0799
   XY=     1.5702   YY=    27.6479   ZY=    -0.8401
   XZ=     2.9041   YZ=    -0.9621   ZZ=    28.0377
   Eigenvalues:    26.2153    28.6829    42.3667
     29  H    Isotropic =    32.5457   Anisotropy =     9.4705
   XX=    29.9679   YX=     0.8119   ZX=    -2.3629
   XY=     0.8439   YY=    33.4958   ZY=     4.8980
   XZ=    -2.7076   YZ=     4.7284   ZZ=    34.1735
   Eigenvalues:    27.0475    31.7303    38.8594
     30  H    Isotropic =    32.6058   Anisotropy =    10.8775
   XX=    32.1185   YX=    -2.7264   ZX=     0.2522
   XY=    -2.5430   YY=    31.6838   ZY=    -6.2112
   XZ=     0.4050   YZ=    -6.5900   ZZ=    34.0150
   Eigenvalues:    25.7998    32.1601    39.8575
     31  H    Isotropic =    32.4827   Anisotropy =    14.8030
   XX=    39.1657   YX=     4.3227   ZX=    -3.9515
   XY=     4.2762   YY=    28.1036   ZY=    -2.2871
   XZ=    -4.0961   YZ=    -2.3276   ZZ=    30.1787
   Eigenvalues:    26.3111    28.7856    42.3513
 End of Minotr Frequency-dependent properties file   721 does not exist.
 End of Minotr Frequency-dependent properties file   722 does not exist.

 **********************************************************************

            Population analysis using the SCF density.

 **********************************************************************

 Orbital symmetries:
       Occupied  (A) (A) (A) (A) (A) (A) (A) (A) (A) (A) (A) (A)
                 (A) (A) (A) (A) (A) (A) (A) (A) (A) (A) (A) (A)
                 (A) (A) (A) (A) (A) (A) (A) (A) (A) (A) (A) (A)
                 (A) (A) (A) (A) (A) (A) (A) (A)
       Virtual   (A) (A) (A) (A) (A) (A) (A) (A) (A) (A) (A) (A)
                 (A) (A) (A) (A) (A) (A) (A) (A) (A) (A) (A) (A)
                 (A) (A) (A) (A) (A) (A) (A)
 The electronic state is 1-A.
 Alpha  occ. eigenvalues --  -20.23691 -11.08510 -11.04839 -11.04202 -11.04101
 Alpha  occ. eigenvalues --  -11.03698 -11.03659 -11.03613 -11.03276 -11.02615
 Alpha  occ. eigenvalues --  -11.01699  -1.27869  -1.08226  -1.03407  -0.96864
 Alpha  occ. eigenvalues --   -0.94665  -0.88192  -0.87714  -0.79329  -0.77760
 Alpha  occ. eigenvalues --   -0.73231  -0.70735  -0.60855  -0.60268  -0.59874
 Alpha  occ. eigenvalues --   -0.57872  -0.56852  -0.54232  -0.52843  -0.51997
 Alpha  occ. eigenvalues --   -0.50052  -0.49748  -0.48879  -0.47340  -0.47129
 Alpha  occ. eigenvalues --   -0.45629  -0.44730  -0.42949  -0.42109  -0.40575
 Alpha  occ. eigenvalues --   -0.39416  -0.38484  -0.36502  -0.32950
 Alpha virt. eigenvalues --    0.53160   0.55547   0.56704   0.60599   0.60727
 Alpha virt. eigenvalues --    0.61485   0.63353   0.65741   0.67339   0.68426
 Alpha virt. eigenvalues --    0.68843   0.69941   0.71038   0.72021   0.72577
 Alpha virt. eigenvalues --    0.73117   0.73726   0.73953   0.75887   0.76387
 Alpha virt. eigenvalues --    0.77262   0.77819   0.78627   0.78985   0.79483
 Alpha virt. eigenvalues --    0.81578   0.82426   0.82871   0.83136   0.84280
 Alpha virt. eigenvalues --    0.85039
          Condensed to atoms (all electrons):
              1          2          3          4          5          6
     1  C    4.739598   0.365637   0.000701   0.000748   0.000003  -0.024255
     2  C    0.365637   4.743039  -0.019598  -0.022735  -0.003046   0.364554
     3  C    0.000701  -0.019598   4.740397  -0.021797   0.358808  -0.003496
     4  C    0.000748  -0.022735  -0.021797   4.758082   0.361393   0.363271
     5  C    0.000003  -0.003046   0.358808   0.361393   4.772558  -0.021228
     6  C   -0.024255   0.364554  -0.003496   0.363271  -0.021228   4.755517
     7  C   -0.024272   0.362597   0.358368  -0.003627  -0.021987  -0.024061
     8  O   -0.000001   0.000265   0.267663   0.000214  -0.016482   0.000001
     9  C    0.000000   0.000004  -0.018049  -0.021977   0.358426   0.000646
    10  C    0.000000   0.000000  -0.000303   0.000653  -0.021302  -0.000004
    11  C    0.000000   0.000000  -0.002517  -0.001299  -0.020377   0.000003
    12  H    0.382255  -0.020375   0.000012  -0.000018   0.000000   0.001294
    13  H    0.382363  -0.020306  -0.000016   0.000013   0.000000  -0.002236
    14  H    0.382344  -0.020668   0.000008   0.000009   0.000001  -0.002221
    15  H   -0.024097   0.381777  -0.001811  -0.001866   0.000064  -0.024014
    16  H   -0.000004  -0.001192   0.374731  -0.001395  -0.023999   0.000090
    17  H   -0.000016   0.001285   0.001146   0.382950  -0.020864  -0.022038
    18  H    0.000005  -0.001896  -0.001849   0.381078  -0.021941  -0.023434
    19  H   -0.000006   0.000098  -0.024377  -0.023561   0.379121  -0.002101
    20  H   -0.002494  -0.022359   0.000047  -0.022862  -0.001793   0.381309
    21  H   -0.002042  -0.021391   0.000017  -0.021642   0.001213   0.382562
    22  H   -0.002557  -0.021316  -0.022340   0.000100  -0.001863  -0.001789
    23  H   -0.002063  -0.020845  -0.021991   0.000016   0.001124   0.001266
    24  H    0.000000   0.000004  -0.041066  -0.000038   0.002430   0.000000
    25  H    0.000000   0.000000   0.001049  -0.004124  -0.023609   0.000032
    26  H    0.000000   0.000000  -0.000042  -0.000005  -0.000873   0.000000
    27  H    0.000000   0.000000   0.000022   0.000026  -0.002906  -0.000001
    28  H    0.000000   0.000000  -0.000009  -0.000015   0.001160   0.000000
    29  H    0.000000   0.000000  -0.000660   0.000036  -0.001373  -0.000001
    30  H    0.000000   0.000001  -0.000043  -0.000631  -0.001728  -0.000003
    31  H    0.000000   0.000000   0.000026   0.000011   0.001117   0.000000
              7          8          9         10         11         12
     1  C   -0.024272  -0.000001   0.000000   0.000000   0.000000   0.382255
     2  C    0.362597   0.000265   0.000004   0.000000   0.000000  -0.020375
     3  C    0.358368   0.267663  -0.018049  -0.000303  -0.002517   0.000012
     4  C   -0.003627   0.000214  -0.021977   0.000653  -0.001299  -0.000018
     5  C   -0.021987  -0.016482   0.358426  -0.021302  -0.020377   0.000000
     6  C   -0.024061   0.000001   0.000646  -0.000004   0.000003   0.001294
     7  C    4.785764  -0.020917   0.000551  -0.000004   0.000009  -0.002253
     8  O   -0.020917   7.847313  -0.000181  -0.001092   0.000007   0.000000
     9  C    0.000551  -0.000181   4.736948   0.364367   0.364292   0.000000
    10  C   -0.000004  -0.001092   0.364367   4.742848  -0.025963   0.000000
    11  C    0.000009   0.000007   0.364292  -0.025963   4.741993   0.000000
    12  H   -0.002253   0.000000   0.000000   0.000000   0.000000   0.631328
    13  H    0.001297   0.000000   0.000000   0.000000   0.000000  -0.021622
    14  H   -0.002230   0.000000   0.000000   0.000000   0.000000  -0.021700
    15  H   -0.024254   0.000001  -0.000003   0.000000   0.000000  -0.002282
    16  H   -0.027393  -0.018708  -0.001784   0.000021  -0.000660   0.000001
    17  H    0.000008  -0.000004  -0.002549   0.000024   0.000055   0.000000
    18  H    0.000074   0.000001  -0.001748   0.000000  -0.000640   0.000000
    19  H   -0.002043  -0.000543  -0.023549  -0.003807   0.001111   0.000000
    20  H   -0.001805  -0.000001   0.000005   0.000000  -0.000001   0.000015
    21  H    0.001264   0.000000  -0.000014   0.000000   0.000000   0.000013
    22  H    0.380109  -0.000824   0.000002   0.000000   0.000000  -0.000016
    23  H    0.380761  -0.001110  -0.000012   0.000000   0.000000   0.000241
    24  H   -0.003049   0.257872  -0.000006   0.000053  -0.000004   0.000000
    25  H   -0.000013  -0.000006   0.381631  -0.025678  -0.024794   0.000000
    26  H    0.000000   0.000246  -0.019758   0.382795  -0.002872   0.000000
    27  H   -0.000002   0.000006  -0.020146   0.382472   0.001300   0.000000
    28  H    0.000000   0.000016  -0.020446   0.381219  -0.001655   0.000000
    29  H    0.000004   0.000049  -0.020296  -0.002498   0.382532   0.000000
    30  H   -0.000002   0.000002  -0.019864   0.001326   0.382211   0.000000
    31  H    0.000000  -0.000001  -0.019872  -0.002249   0.382419   0.000000
             13         14         15         16         17         18
     1  C    0.382363   0.382344  -0.024097  -0.000004  -0.000016   0.000005
     2  C   -0.020306  -0.020668   0.381777  -0.001192   0.001285  -0.001896
     3  C   -0.000016   0.000008  -0.001811   0.374731   0.001146  -0.001849
     4  C    0.000013   0.000009  -0.001866  -0.001395   0.382950   0.381078
     5  C    0.000000   0.000001   0.000064  -0.023999  -0.020864  -0.021941
     6  C   -0.002236  -0.002221  -0.024014   0.000090  -0.022038  -0.023434
     7  C    0.001297  -0.002230  -0.024254  -0.027393   0.000008   0.000074
     8  O    0.000000   0.000000   0.000001  -0.018708  -0.000004   0.000001
     9  C    0.000000   0.000000  -0.000003  -0.001784  -0.002549  -0.001748
    10  C    0.000000   0.000000   0.000000   0.000021   0.000024   0.000000
    11  C    0.000000   0.000000   0.000000  -0.000660   0.000055  -0.000640
    12  H   -0.021622  -0.021700  -0.002282   0.000001   0.000000   0.000000
    13  H    0.629963  -0.021653  -0.002280   0.000000  -0.000001   0.000002
    14  H   -0.021653   0.629546   0.001885  -0.000001   0.000000  -0.000001
    15  H   -0.002280   0.001885   0.651746   0.000289   0.000005   0.000297
    16  H    0.000000  -0.000001   0.000289   0.663986  -0.000005   0.000279
    17  H   -0.000001   0.000000   0.000005  -0.000005   0.638964  -0.023318
    18  H    0.000002  -0.000001   0.000297   0.000279  -0.023318   0.645169
    19  H    0.000000  -0.000001   0.000006   0.001831  -0.002469   0.001885
    20  H   -0.000007   0.000346   0.001886   0.000002  -0.002778   0.001961
    21  H    0.000234   0.000001  -0.002554  -0.000007  -0.001971  -0.002791
    22  H    0.000018   0.000350   0.001880   0.001892  -0.000010   0.000004
    23  H    0.000014  -0.000002  -0.002597  -0.002812   0.000002  -0.000009
    24  H    0.000000   0.000000   0.000003  -0.003629   0.000001   0.000000
    25  H    0.000000   0.000000   0.000000   0.000001   0.000067   0.000042
    26  H    0.000000   0.000000   0.000000   0.000016  -0.000001   0.000000
    27  H    0.000000   0.000000   0.000000   0.000000   0.000005   0.000000
    28  H    0.000000   0.000000   0.000000  -0.000001  -0.000001   0.000000
    29  H    0.000000   0.000000   0.000000  -0.000884  -0.000001   0.000034
    30  H    0.000000   0.000000   0.000000  -0.000033   0.000039  -0.000481
    31  H    0.000000   0.000000   0.000000   0.000006  -0.000004  -0.000007
             19         20         21         22         23         24
     1  C   -0.000006  -0.002494  -0.002042  -0.002557  -0.002063   0.000000
     2  C    0.000098  -0.022359  -0.021391  -0.021316  -0.020845   0.000004
     3  C   -0.024377   0.000047   0.000017  -0.022340  -0.021991  -0.041066
     4  C   -0.023561  -0.022862  -0.021642   0.000100   0.000016  -0.000038
     5  C    0.379121  -0.001793   0.001213  -0.001863   0.001124   0.002430
     6  C   -0.002101   0.381309   0.382562  -0.001789   0.001266   0.000000
     7  C   -0.002043  -0.001805   0.001264   0.380109   0.380761  -0.003049
     8  O   -0.000543  -0.000001   0.000000  -0.000824  -0.001110   0.257872
     9  C   -0.023549   0.000005  -0.000014   0.000002  -0.000012  -0.000006
    10  C   -0.003807   0.000000   0.000000   0.000000   0.000000   0.000053
    11  C    0.001111  -0.000001   0.000000   0.000000   0.000000  -0.000004
    12  H    0.000000   0.000015   0.000013  -0.000016   0.000241   0.000000
    13  H    0.000000  -0.000007   0.000234   0.000018   0.000014   0.000000
    14  H   -0.000001   0.000346   0.000001   0.000350  -0.000002   0.000000
    15  H    0.000006   0.001886  -0.002554   0.001880  -0.002597   0.000003
    16  H    0.001831   0.000002  -0.000007   0.001892  -0.002812  -0.003629
    17  H   -0.002469  -0.002778  -0.001971  -0.000010   0.000002   0.000001
    18  H    0.001885   0.001961  -0.002791   0.000004  -0.000009   0.000000
    19  H    0.647114   0.000314   0.000011   0.000233   0.000001   0.000009
    20  H    0.000314   0.642939  -0.023365   0.000290   0.000002   0.000000
    21  H    0.000011  -0.023365   0.640194   0.000007  -0.000034   0.000000
    22  H    0.000233   0.000290   0.000007   0.635998  -0.024636  -0.000038
    23  H    0.000001   0.000002  -0.000034  -0.024636   0.648483   0.000507
    24  H    0.000009   0.000000   0.000000  -0.000038   0.000507   0.610727
    25  H   -0.001170   0.000003  -0.000002   0.000000   0.000000   0.000002
    26  H    0.000030   0.000000   0.000000   0.000000   0.000000   0.000022
    27  H    0.000185   0.000000   0.000000   0.000000   0.000000   0.000000
    28  H    0.000050   0.000000   0.000000   0.000000   0.000000  -0.000002
    29  H   -0.000001   0.000000   0.000000   0.000000   0.000001   0.000007
    30  H    0.000007   0.000000   0.000001   0.000000   0.000000   0.000000
    31  H   -0.000028   0.000000   0.000000   0.000000   0.000000   0.000000
             25         26         27         28         29         30
     1  C    0.000000   0.000000   0.000000   0.000000   0.000000   0.000000
     2  C    0.000000   0.000000   0.000000   0.000000   0.000000   0.000001
     3  C    0.001049  -0.000042   0.000022  -0.000009  -0.000660  -0.000043
     4  C   -0.004124  -0.000005   0.000026  -0.000015   0.000036  -0.000631
     5  C   -0.023609  -0.000873  -0.002906   0.001160  -0.001373  -0.001728
     6  C    0.000032   0.000000  -0.000001   0.000000  -0.000001  -0.000003
     7  C   -0.000013   0.000000  -0.000002   0.000000   0.000004  -0.000002
     8  O   -0.000006   0.000246   0.000006   0.000016   0.000049   0.000002
     9  C    0.381631  -0.019758  -0.020146  -0.020446  -0.020296  -0.019864
    10  C   -0.025678   0.382795   0.382472   0.381219  -0.002498   0.001326
    11  C   -0.024794  -0.002872   0.001300  -0.001655   0.382532   0.382211
    12  H    0.000000   0.000000   0.000000   0.000000   0.000000   0.000000
    13  H    0.000000   0.000000   0.000000   0.000000   0.000000   0.000000
    14  H    0.000000   0.000000   0.000000   0.000000   0.000000   0.000000
    15  H    0.000000   0.000000   0.000000   0.000000   0.000000   0.000000
    16  H    0.000001   0.000016   0.000000  -0.000001  -0.000884  -0.000033
    17  H    0.000067  -0.000001   0.000005  -0.000001  -0.000001   0.000039
    18  H    0.000042   0.000000   0.000000   0.000000   0.000034  -0.000481
    19  H   -0.001170   0.000030   0.000185   0.000050  -0.000001   0.000007
    20  H    0.000003   0.000000   0.000000   0.000000   0.000000   0.000000
    21  H   -0.000002   0.000000   0.000000   0.000000   0.000000   0.000001
    22  H    0.000000   0.000000   0.000000   0.000000   0.000000   0.000000
    23  H    0.000000   0.000000   0.000000   0.000000   0.000001   0.000000
    24  H    0.000002   0.000022   0.000000  -0.000002   0.000007   0.000000
    25  H    0.657161   0.001936  -0.001547  -0.003720   0.001921  -0.001977
    26  H    0.001936   0.614522  -0.020932  -0.022398   0.000378   0.000023
    27  H   -0.001547  -0.020932   0.631108  -0.021991   0.000015  -0.000037
    28  H   -0.003720  -0.022398  -0.021991   0.639915  -0.000005   0.000013
    29  H    0.001921   0.000378   0.000015  -0.000005   0.629787  -0.021884
    30  H   -0.001977   0.000023  -0.000037   0.000013  -0.021884   0.634305
    31  H   -0.002828  -0.000029   0.000027   0.000109  -0.021977  -0.022024
             31
     1  C    0.000000
     2  C    0.000000
     3  C    0.000026
     4  C    0.000011
     5  C    0.001117
     6  C    0.000000
     7  C    0.000000
     8  O   -0.000001
     9  C   -0.019872
    10  C   -0.002249
    11  C    0.382419
    12  H    0.000000
    13  H    0.000000
    14  H    0.000000
    15  H    0.000000
    16  H    0.000006
    17  H   -0.000004
    18  H   -0.000007
    19  H   -0.000028
    20  H    0.000000
    21  H    0.000000
    22  H    0.000000
    23  H    0.000000
    24  H    0.000000
    25  H   -0.002828
    26  H   -0.000029
    27  H    0.000027
    28  H    0.000109
    29  H   -0.021977
    30  H   -0.022024
    31  H    0.631193
 Mulliken atomic charges:
              1
     1  C   -0.171848
     2  C   -0.023534
     3  C    0.076969
     4  C   -0.101007
     5  C   -0.032046
     6  C   -0.099663
     7  C   -0.112897
     8  O   -0.313788
     9  C   -0.016619
    10  C   -0.172881
    11  C   -0.175151
    12  H    0.053105
    13  H    0.054217
    14  H    0.053988
    15  H    0.045919
    16  H    0.039361
    17  H    0.051476
    18  H    0.047285
    19  H    0.051649
    20  H    0.048346
    21  H    0.050293
    22  H    0.054507
    23  H    0.043693
    24  H    0.176196
    25  H    0.045624
    26  H    0.066939
    27  H    0.052396
    28  H    0.047762
    29  H    0.054816
    30  H    0.050779
    31  H    0.054114
 Sum of Mulliken atomic charges =   0.00000
 Mulliken charges with hydrogens summed into heavy atoms:
              1
     1  C   -0.010539
     2  C    0.022385
     3  C    0.116330
     4  C   -0.002246
     5  C    0.019603
     6  C   -0.001024
     7  C   -0.014697
     8  O   -0.137591
     9  C    0.029005
    10  C   -0.005784
    11  C   -0.015442
 Sum of Mulliken charges with hydrogens summed into heavy atoms =   0.00000
 Electronic spatial extent (au):  <R**2>=           2185.2444
 Charge=              0.0000 electrons
 Dipole moment (field-independent basis, Debye):
    X=              1.0676    Y=             -0.1581    Z=              0.8765  Tot=              1.3904
 Quadrupole moment (field-independent basis, Debye-Ang):
   XX=            -69.7926   YY=            -66.2585   ZZ=            -66.8886
   XY=              2.1421   XZ=             -0.3852   YZ=              2.5942
 Traceless Quadrupole moment (field-independent basis, Debye-Ang):
   XX=             -2.1461   YY=              1.3880   ZZ=              0.7580
   XY=              2.1421   XZ=             -0.3852   YZ=              2.5942
 Octapole moment (field-independent basis, Debye-Ang**2):
  XXX=             -6.9699  YYY=             20.3498  ZZZ=             -1.6441  XYY=              2.8072
  XXY=             -0.1792  XXZ=              1.0852  XZZ=              0.4453  YZZ=              5.2629
  YYZ=              7.0464  XYZ=             -2.2357
 Hexadecapole moment (field-independent basis, Debye-Ang**3):
 XXXX=          -1985.1270 YYYY=           -526.4900 ZZZZ=           -262.5067 XXXY=             -4.2065
 XXXZ=             -0.3526 YYYX=             -5.4175 YYYZ=             19.0272 ZZZX=              0.3624
 ZZZY=              0.2145 XXYY=           -422.3878 XXZZ=           -375.4527 YYZZ=           -135.2252
 XXYZ=              2.4783 YYXZ=             -0.5722 ZZXY=             -2.4976
 N-N= 6.907668839352D+02 E-N=-2.453644865740D+03  KE= 4.555303833122D+02
 ******************************Gaussian NBO Version 3.1******************************
             N A T U R A L   A T O M I C   O R B I T A L   A N D
          N A T U R A L   B O N D   O R B I T A L   A N A L Y S I S
 ******************************Gaussian NBO Version 3.1******************************
       /RESON  / : Allow strongly delocalized NBO set
       /NLMO   / : Form Natural Localized Molecular Orbitals
       /NMR /    : Analyze NMR Sheilding Tensor 

 Analyzing the SCF density

 Job title: comment                                                         

 Storage needed:     19864 in NPA,     23691 in NBO,     45933 in NLMO (  33549317 available)


 NATURAL POPULATIONS:  Natural atomic orbital occupancies 
                                                          
   NAO  Atom  No  lang   Type(AO)    Occupancy      Energy
 ----------------------------------------------------------
     1    C    1  S      Cor( 1S)     1.99997     -10.96627
     2    C    1  S      Val( 2S)     1.07946      -0.18258
     3    C    1  px     Val( 2p)     0.99296       0.08674
     4    C    1  py     Val( 2p)     1.02763       0.08285
     5    C    1  pz     Val( 2p)     1.02700       0.08319

     6    C    2  S      Cor( 1S)     1.99997     -10.99045
     7    C    2  S      Val( 2S)     1.07784      -0.19200
     8    C    2  px     Val( 2p)     0.95471       0.10713
     9    C    2  py     Val( 2p)     0.96095       0.10640
    10    C    2  pz     Val( 2p)     0.99186       0.10103

    11    C    3  S      Cor( 1S)     1.99989     -11.03408
    12    C    3  S      Val( 2S)     1.08670      -0.21526
    13    C    3  px     Val( 2p)     0.92119       0.10130
    14    C    3  py     Val( 2p)     0.87125       0.10867
    15    C    3  pz     Val( 2p)     0.97637       0.09285

    16    C    4  S      Cor( 1S)     1.99996     -10.97459
    17    C    4  S      Val( 2S)     1.08523      -0.18958
    18    C    4  px     Val( 2p)     0.97354       0.09879
    19    C    4  py     Val( 2p)     0.98908       0.09442
    20    C    4  pz     Val( 2p)     1.01531       0.09346

    21    C    5  S      Cor( 1S)     1.99995     -10.98766
    22    C    5  S      Val( 2S)     1.10124      -0.20801
    23    C    5  px     Val( 2p)     0.95975       0.10696
    24    C    5  py     Val( 2p)     0.95398       0.11033
    25    C    5  pz     Val( 2p)     0.99537       0.09960

    26    C    6  S      Cor( 1S)     1.99996     -10.97439
    27    C    6  S      Val( 2S)     1.08295      -0.18766
    28    C    6  px     Val( 2p)     0.98045       0.09718
    29    C    6  py     Val( 2p)     0.99381       0.09482
    30    C    6  pz     Val( 2p)     1.00550       0.09449

    31    C    7  S      Cor( 1S)     1.99996     -10.97522
    32    C    7  S      Val( 2S)     1.09338      -0.19947
    33    C    7  px     Val( 2p)     0.98408       0.08776
    34    C    7  py     Val( 2p)     0.98994       0.09190
    35    C    7  pz     Val( 2p)     1.02173       0.08450

    36    O    8  S      Cor( 1S)     1.99999     -20.14054
    37    O    8  S      Val( 2S)     1.74770      -0.99736
    38    O    8  px     Val( 2p)     1.71725      -0.27175
    39    O    8  py     Val( 2p)     1.14034      -0.02327
    40    O    8  pz     Val( 2p)     1.72948      -0.27733

    41    C    9  S      Cor( 1S)     1.99996     -10.98523
    42    C    9  S      Val( 2S)     1.08478      -0.18953
    43    C    9  px     Val( 2p)     0.94822       0.11938
    44    C    9  py     Val( 2p)     0.98684       0.10873
    45    C    9  pz     Val( 2p)     0.95589       0.11931

    46    C   10  S      Cor( 1S)     1.99997     -10.95073
    47    C   10  S      Val( 2S)     1.08127      -0.16847
    48    C   10  px     Val( 2p)     1.00775       0.10109
    49    C   10  py     Val( 2p)     1.02058       0.09875
    50    C   10  pz     Val( 2p)     1.01996       0.09859

    51    C   11  S      Cor( 1S)     1.99997     -10.95978
    52    C   11  S      Val( 2S)     1.07951      -0.17662
    53    C   11  px     Val( 2p)     1.02686       0.08734
    54    C   11  py     Val( 2p)     1.02774       0.08984
    55    C   11  pz     Val( 2p)     0.99715       0.09257

    56    H   12  S      Val( 1S)     0.96411       0.07265

    57    H   13  S      Val( 1S)     0.96307       0.07367

    58    H   14  S      Val( 1S)     0.96334       0.07341

    59    H   15  S      Val( 1S)     0.97794       0.06172

    60    H   16  S      Val( 1S)     0.99638       0.04800

    61    H   17  S      Val( 1S)     0.96950       0.07157

    62    H   18  S      Val( 1S)     0.97390       0.06998

    63    H   19  S      Val( 1S)     0.97420       0.07114

    64    H   20  S      Val( 1S)     0.97237       0.06936

    65    H   21  S      Val( 1S)     0.97028       0.07000

    66    H   22  S      Val( 1S)     0.96635       0.07064

    67    H   23  S      Val( 1S)     0.97601       0.05961

    68    H   24  S      Val( 1S)     0.81118       0.07414

    69    H   25  S      Val( 1S)     0.97961       0.07040

    70    H   26  S      Val( 1S)     0.95210       0.10181

    71    H   27  S      Val( 1S)     0.96475       0.08792

    72    H   28  S      Val( 1S)     0.96905       0.08232

    73    H   29  S      Val( 1S)     0.96259       0.08126

    74    H   30  S      Val( 1S)     0.96639       0.07835

    75    H   31  S      Val( 1S)     0.96278       0.07885


 Summary of Natural Population Analysis:                  
                                                          
                                       Natural Population 
                Natural  -----------------------------------------------
    Atom  No    Charge         Core      Valence    Rydberg      Total
 -----------------------------------------------------------------------
      C    1   -0.12702      1.99997     4.12704    0.00000     6.12702
      C    2    0.01467      1.99997     3.98536    0.00000     5.98533
      C    3    0.14461      1.99989     3.85550    0.00000     5.85539
      C    4   -0.06312      1.99996     4.06316    0.00000     6.06312
      C    5   -0.01029      1.99995     4.01034    0.00000     6.01029
      C    6   -0.06267      1.99996     4.06270    0.00000     6.06267
      C    7   -0.08910      1.99996     4.08913    0.00000     6.08910
      O    8   -0.33476      1.99999     6.33476    0.00000     8.33476
      C    9    0.02431      1.99996     3.97573    0.00000     5.97569
      C   10   -0.12953      1.99997     4.12956    0.00000     6.12953
      C   11   -0.13123      1.99997     4.13126    0.00000     6.13123
      H   12    0.03589      0.00000     0.96411    0.00000     0.96411
      H   13    0.03693      0.00000     0.96307    0.00000     0.96307
      H   14    0.03666      0.00000     0.96334    0.00000     0.96334
      H   15    0.02206      0.00000     0.97794    0.00000     0.97794
      H   16    0.00362      0.00000     0.99638    0.00000     0.99638
      H   17    0.03050      0.00000     0.96950    0.00000     0.96950
      H   18    0.02610      0.00000     0.97390    0.00000     0.97390
      H   19    0.02580      0.00000     0.97420    0.00000     0.97420
      H   20    0.02763      0.00000     0.97237    0.00000     0.97237
      H   21    0.02972      0.00000     0.97028    0.00000     0.97028
      H   22    0.03365      0.00000     0.96635    0.00000     0.96635
      H   23    0.02399      0.00000     0.97601    0.00000     0.97601
      H   24    0.18882      0.00000     0.81118    0.00000     0.81118
      H   25    0.02039      0.00000     0.97961    0.00000     0.97961
      H   26    0.04790      0.00000     0.95210    0.00000     0.95210
      H   27    0.03525      0.00000     0.96475    0.00000     0.96475
      H   28    0.03095      0.00000     0.96905    0.00000     0.96905
      H   29    0.03741      0.00000     0.96259    0.00000     0.96259
      H   30    0.03361      0.00000     0.96639    0.00000     0.96639
      H   31    0.03722      0.00000     0.96278    0.00000     0.96278
 =======================================================================
   * Total *    0.00000     21.99956    66.00044    0.00000    88.00000

                                 Natural Population      
 --------------------------------------------------------
   Core                      21.99956 ( 99.9980% of  22)
   Valence                   66.00044 (100.0007% of  66)
   Natural Minimal Basis     88.00000 (100.0000% of  88)
   Natural Rydberg Basis      0.00000 (  0.0000% of  88)
 --------------------------------------------------------

    Atom  No          Natural Electron Configuration
 ----------------------------------------------------------------------------
      C    1      [core]2S( 1.08)2p( 3.05)
      C    2      [core]2S( 1.08)2p( 2.91)
      C    3      [core]2S( 1.09)2p( 2.77)
      C    4      [core]2S( 1.09)2p( 2.98)
      C    5      [core]2S( 1.10)2p( 2.91)
      C    6      [core]2S( 1.08)2p( 2.98)
      C    7      [core]2S( 1.09)2p( 3.00)
      O    8      [core]2S( 1.75)2p( 4.59)
      C    9      [core]2S( 1.08)2p( 2.89)
      C   10      [core]2S( 1.08)2p( 3.05)
      C   11      [core]2S( 1.08)2p( 3.05)
      H   12            1S( 0.96)
      H   13            1S( 0.96)
      H   14            1S( 0.96)
      H   15            1S( 0.98)
      H   16            1S( 1.00)
      H   17            1S( 0.97)
      H   18            1S( 0.97)
      H   19            1S( 0.97)
      H   20            1S( 0.97)
      H   21            1S( 0.97)
      H   22            1S( 0.97)
      H   23            1S( 0.98)
      H   24            1S( 0.81)
      H   25            1S( 0.98)
      H   26            1S( 0.95)
      H   27            1S( 0.96)
      H   28            1S( 0.97)
      H   29            1S( 0.96)
      H   30            1S( 0.97)
      H   31            1S( 0.96)


 NATURAL BOND ORBITAL ANALYSIS:

                       Occupancies       Lewis Structure    Low   High
           Occ.    -------------------  -----------------   occ   occ
  Cycle   Thresh.   Lewis   Non-Lewis     CR  BD  3C  LP    (L)   (NL)   Dev
 =============================================================================
   1(1)    1.90    87.63792   0.36208     11  31   0   2     0      0    0.02
 -----------------------------------------------------------------------------

 Structure accepted: No low occupancy Lewis orbitals

 --------------------------------------------------------
   Core                     21.99956 ( 99.998% of  22)
   Valence Lewis            65.63836 ( 99.452% of  66)
  ==================       ============================
   Total Lewis              87.63792 ( 99.589% of  88)
  -----------------------------------------------------
   Valence non-Lewis         0.36208 (  0.411% of  88)
   Rydberg non-Lewis         0.00000 (  0.000% of  88)
  ==================       ============================
   Total non-Lewis           0.36208 (  0.411% of  88)
 --------------------------------------------------------


       (Occupancy)   Bond orbital/ Coefficients/ Hybrids
 ---------------------------------------------------------------------------------
     1. (1.98908) BD ( 1) C   1 - C   2  
                ( 50.82%)   0.7129* C   1 s( 25.75%)p 2.88( 74.25%)
                                            0.0001  0.5075 -0.8283 -0.1414  0.1907
                ( 49.18%)   0.7013* C   2 s( 25.16%)p 2.97( 74.84%)
                                            0.0000  0.5016  0.8256  0.1465 -0.2127
     2. (1.99504) BD ( 1) C   1 - H  12  
                ( 51.81%)   0.7198* C   1 s( 24.69%)p 3.05( 75.31%)
                                            0.0000  0.4969  0.2955  0.6735  0.4607
                ( 48.19%)   0.6942* H  12 s(100.00%)
                                            1.0000
     3. (1.99499) BD ( 1) C   1 - H  13  
                ( 51.86%)   0.7201* C   1 s( 24.72%)p 3.05( 75.28%)
                                            0.0000  0.4971  0.4691 -0.7042  0.1923
                ( 48.14%)   0.6938* H  13 s(100.00%)
                                            1.0000
     4. (1.99545) BD ( 1) C   1 - H  14  
                ( 51.88%)   0.7202* C   1 s( 24.84%)p 3.03( 75.16%)
                                            0.0000  0.4984  0.0809  0.1749 -0.8452
                ( 48.12%)   0.6937* H  14 s(100.00%)
                                            1.0000
     5. (1.98522) BD ( 1) C   2 - C   6  
                ( 49.75%)   0.7054* C   2 s( 25.11%)p 2.98( 74.89%)
                                            0.0000  0.5011 -0.3002 -0.6760 -0.4492
                ( 50.25%)   0.7088* C   6 s( 25.30%)p 2.95( 74.70%)
                                            0.0001  0.5030  0.2938  0.6843  0.4386
     6. (1.98408) BD ( 1) C   2 - C   7  
                ( 49.36%)   0.7026* C   2 s( 25.02%)p 3.00( 74.98%)
                                            0.0000  0.5002 -0.4748  0.7014 -0.1802
                ( 50.64%)   0.7116* C   7 s( 25.64%)p 2.90( 74.36%)
                                            0.0001  0.5063  0.4682 -0.7046  0.1673
     7. (1.98495) BD ( 1) C   2 - H  15  
                ( 51.04%)   0.7144* C   2 s( 24.71%)p 3.05( 75.29%)
                                            0.0000  0.4971 -0.0528 -0.1722  0.8488
                ( 48.96%)   0.6997* H  15 s(100.00%)
                                            1.0000
     8. (1.98237) BD ( 1) C   3 - C   5  
                ( 50.67%)   0.7118* C   3 s( 26.70%)p 2.74( 73.30%)
                                            0.0000  0.5167 -0.3199 -0.6591 -0.4431
                ( 49.33%)   0.7024* C   5 s( 25.28%)p 2.96( 74.72%)
                                            0.0001  0.5028  0.2769  0.6799  0.4564
     9. (1.98689) BD ( 1) C   3 - C   7  
                ( 49.30%)   0.7022* C   3 s( 25.45%)p 2.93( 74.55%)
                                            0.0000  0.5045  0.8371  0.1106 -0.1805
                ( 50.70%)   0.7120* C   7 s( 25.09%)p 2.99( 74.91%)
                                            0.0000  0.5009 -0.8345 -0.1542  0.1700
    10. (1.98829) BD ( 1) C   3 - O   8  
                ( 40.99%)   0.6403* C   3 s( 22.38%)p 3.47( 77.62%)
                                            0.0000  0.4731 -0.4313  0.7336 -0.2281
                ( 59.01%)   0.7682* O   8 s( 16.65%)p 5.01( 83.35%)
                                            0.0000  0.4080  0.4816 -0.7240  0.2783
    11. (1.98883) BD ( 1) C   3 - H  16  
                ( 50.52%)   0.7107* C   3 s( 25.46%)p 2.93( 74.54%)
                                            0.0000  0.5046 -0.1049 -0.1235  0.8480
                ( 49.48%)   0.7035* H  16 s(100.00%)
                                            1.0000
    12. (1.98290) BD ( 1) C   4 - C   5  
                ( 50.45%)   0.7103* C   4 s( 25.30%)p 2.95( 74.70%)
                                            0.0001  0.5030 -0.4743  0.7030 -0.1669
                ( 49.55%)   0.7039* C   5 s( 24.86%)p 3.02( 75.14%)
                                            0.0000  0.4986  0.4787 -0.6955  0.1964
    13. (1.98928) BD ( 1) C   4 - C   6  
                ( 49.97%)   0.7069* C   4 s( 25.13%)p 2.98( 74.87%)
                                            0.0000  0.5013  0.8317  0.1605 -0.1767
                ( 50.03%)   0.7073* C   6 s( 25.11%)p 2.98( 74.89%)
                                            0.0000  0.5011 -0.8375 -0.1237  0.1793
    14. (1.98958) BD ( 1) C   4 - H  17  
                ( 51.49%)   0.7176* C   4 s( 24.91%)p 3.01( 75.09%)
                                            0.0000  0.4991 -0.2772 -0.6600 -0.4883
                ( 48.51%)   0.6965* H  17 s(100.00%)
                                            1.0000
    15. (1.99024) BD ( 1) C   4 - H  18  
                ( 51.34%)   0.7165* C   4 s( 24.66%)p 3.05( 75.34%)
                                            0.0000  0.4966 -0.0806 -0.2107  0.8381
                ( 48.66%)   0.6976* H  18 s(100.00%)
                                            1.0000
    16. (1.97889) BD ( 1) C   5 - C   9  
                ( 50.32%)   0.7093* C   5 s( 25.50%)p 2.92( 74.50%)
                                            0.0001  0.5049 -0.8291 -0.1574  0.1813
                ( 49.68%)   0.7049* C   9 s( 25.42%)p 2.93( 74.58%)
                                            0.0001  0.5042  0.8305  0.2147 -0.1000
    17. (1.98373) BD ( 1) C   5 - H  19  
                ( 51.20%)   0.7156* C   5 s( 24.37%)p 3.10( 75.63%)
                                            0.0000  0.4936  0.0826  0.1710 -0.8487
                ( 48.80%)   0.6985* H  19 s(100.00%)
                                            1.0000
    18. (1.99070) BD ( 1) C   6 - H  20  
                ( 51.41%)   0.7170* C   6 s( 24.70%)p 3.05( 75.30%)
                                            0.0000  0.4970  0.0945  0.1397 -0.8512
                ( 48.59%)   0.6970* H  20 s(100.00%)
                                            1.0000
    19. (1.98971) BD ( 1) C   6 - H  21  
                ( 51.46%)   0.7173* C   6 s( 24.88%)p 3.02( 75.12%)
                                            0.0000  0.4988  0.4510 -0.7049  0.2256
                ( 48.54%)   0.6967* H  21 s(100.00%)
                                            1.0000
    20. (1.98998) BD ( 1) C   7 - H  22  
                ( 51.71%)   0.7191* C   7 s( 24.63%)p 3.06( 75.37%)
                                            0.0000  0.4962  0.0876  0.2162 -0.8363
                ( 48.29%)   0.6949* H  22 s(100.00%)
                                            1.0000
    21. (1.98875) BD ( 1) C   7 - H  23  
                ( 51.17%)   0.7153* C   7 s( 24.64%)p 3.06( 75.36%)
                                            0.0000  0.4964  0.2770  0.6581  0.4937
                ( 48.83%)   0.6988* H  23 s(100.00%)
                                            1.0000
    22. (1.98906) BD ( 1) O   8 - H  24  
                ( 59.44%)   0.7710* O   8 s( 16.77%)p 4.96( 83.23%)
                                            0.0000  0.4096  0.3562  0.6650  0.5130
                ( 40.56%)   0.6369* H  24 s(100.00%)
                                            1.0000
    23. (1.98957) BD ( 1) C   9 - C  10  
                ( 49.35%)   0.7025* C   9 s( 25.14%)p 2.98( 74.86%)
                                            0.0000  0.5014 -0.5029  0.5860 -0.3902
                ( 50.65%)   0.7117* C  10 s( 25.78%)p 2.88( 74.22%)
                                            0.0001  0.5077  0.5368 -0.5404  0.4026
    24. (1.99024) BD ( 1) C   9 - C  11  
                ( 48.92%)   0.6994* C   9 s( 25.27%)p 2.96( 74.73%)
                                            0.0000  0.5027 -0.1945 -0.0366  0.8415
                ( 51.08%)   0.7147* C  11 s( 25.87%)p 2.87( 74.13%)
                                            0.0001  0.5086  0.2330  0.0634 -0.8264
    25. (1.98382) BD ( 1) C   9 - H  25  
                ( 50.90%)   0.7134* C   9 s( 24.16%)p 3.14( 75.84%)
                                            0.0000  0.4916 -0.1400 -0.7805 -0.3600
                ( 49.10%)   0.7007* H  25 s(100.00%)
                                            1.0000
    26. (1.99582) BD ( 1) C  10 - H  26  
                ( 52.48%)   0.7244* C  10 s( 25.07%)p 2.99( 74.93%)
                                            0.0000  0.5007  0.0032  0.7693  0.3969
                ( 47.52%)   0.6893* H  26 s(100.00%)
                                            1.0000
    27. (1.99486) BD ( 1) C  10 - H  27  
                ( 51.78%)   0.7196* C  10 s( 24.83%)p 3.03( 75.17%)
                                            0.0000  0.4983  0.2480  0.1001 -0.8247
                ( 48.22%)   0.6944* H  27 s(100.00%)
                                            1.0000
    28. (1.99471) BD ( 1) C  10 - H  28  
                ( 51.54%)   0.7179* C  10 s( 24.32%)p 3.11( 75.68%)
                                            0.0000  0.4932 -0.8065 -0.3258  0.0160
                ( 48.46%)   0.6961* H  28 s(100.00%)
                                            1.0000
    29. (1.99509) BD ( 1) C  11 - H  29  
                ( 51.92%)   0.7205* C  11 s( 24.82%)p 3.03( 75.18%)
                                            0.0000  0.4982  0.0762  0.7720  0.3873
                ( 48.08%)   0.6934* H  29 s(100.00%)
                                            1.0000
    30. (1.99455) BD ( 1) C  11 - H  30  
                ( 51.71%)   0.7191* C  11 s( 24.77%)p 3.04( 75.23%)
                                            0.0000  0.4977  0.5076 -0.5747  0.4053
                ( 48.29%)   0.6949* H  30 s(100.00%)
                                            1.0000
    31. (1.99435) BD ( 1) C  11 - H  31  
                ( 51.85%)   0.7201* C  11 s( 24.53%)p 3.08( 75.47%)
                                            0.0000  0.4953 -0.8260 -0.2641  0.0518
                ( 48.15%)   0.6939* H  31 s(100.00%)
                                            1.0000
    32. (1.99997) CR ( 1) C   1           s(100.00%)
                                            1.0000  0.0000  0.0001  0.0000  0.0000
    33. (1.99997) CR ( 1) C   2           s(100.00%)
                                            1.0000  0.0000  0.0000  0.0000  0.0000
    34. (1.99989) CR ( 1) C   3           s(100.00%)
                                            1.0000  0.0000  0.0000  0.0000  0.0000
    35. (1.99996) CR ( 1) C   4           s(100.00%)
                                            1.0000 -0.0001  0.0000 -0.0001  0.0000
    36. (1.99995) CR ( 1) C   5           s(100.00%)
                                            1.0000 -0.0001  0.0000  0.0000  0.0000
    37. (1.99996) CR ( 1) C   6           s(100.00%)
                                            1.0000  0.0000  0.0000 -0.0001  0.0000
    38. (1.99996) CR ( 1) C   7           s(100.00%)
                                            1.0000  0.0000  0.0000  0.0001  0.0000
    39. (1.99999) CR ( 1) O   8           s(100.00%)
                                            1.0000  0.0000  0.0000  0.0000  0.0000
    40. (1.99996) CR ( 1) C   9           s(100.00%)
                                            1.0000  0.0000 -0.0001  0.0000  0.0000
    41. (1.99997) CR ( 1) C  10           s(100.00%)
                                            1.0000  0.0000 -0.0001  0.0000  0.0000
    42. (1.99997) CR ( 1) C  11           s(100.00%)
                                            1.0000  0.0000  0.0000  0.0000  0.0001
    43. (1.99235) LP ( 1) O   8           s( 66.27%)p 0.51( 33.73%)
                                            0.0000  0.8141 -0.3720  0.0405 -0.4442
    44. (1.97498) LP ( 2) O   8           s(  0.31%)p99.99( 99.69%)
                                            0.0000  0.0558 -0.7091 -0.1789  0.6798
    45. (0.01018) BD*( 1) C   1 - C   2  
                ( 49.18%)   0.7013* C   1 s( 25.75%)p 2.88( 74.25%)
                                           -0.0001 -0.5075  0.8283  0.1414 -0.1907
                ( 50.82%)  -0.7129* C   2 s( 25.16%)p 2.97( 74.84%)
                                            0.0000 -0.5016 -0.8256 -0.1465  0.2127
    46. (0.00515) BD*( 1) C   1 - H  12  
                ( 48.19%)   0.6942* C   1 s( 24.69%)p 3.05( 75.31%)
                                            0.0000 -0.4969 -0.2955 -0.6735 -0.4607
                ( 51.81%)  -0.7198* H  12 s(100.00%)
                                           -1.0000
    47. (0.00515) BD*( 1) C   1 - H  13  
                ( 48.14%)   0.6938* C   1 s( 24.72%)p 3.05( 75.28%)
                                            0.0000 -0.4971 -0.4691  0.7042 -0.1923
                ( 51.86%)  -0.7201* H  13 s(100.00%)
                                           -1.0000
    48. (0.00586) BD*( 1) C   1 - H  14  
                ( 48.12%)   0.6937* C   1 s( 24.84%)p 3.03( 75.16%)
                                            0.0000 -0.4984 -0.0809 -0.1749  0.8452
                ( 51.88%)  -0.7202* H  14 s(100.00%)
                                           -1.0000
    49. (0.01583) BD*( 1) C   2 - C   6  
                ( 50.25%)   0.7088* C   2 s( 25.11%)p 2.98( 74.89%)
                                            0.0000  0.5011 -0.3002 -0.6760 -0.4492
                ( 49.75%)  -0.7054* C   6 s( 25.30%)p 2.95( 74.70%)
                                            0.0001  0.5030  0.2938  0.6843  0.4386
    50. (0.01549) BD*( 1) C   2 - C   7  
                ( 50.64%)   0.7116* C   2 s( 25.02%)p 3.00( 74.98%)
                                            0.0000  0.5002 -0.4748  0.7014 -0.1802
                ( 49.36%)  -0.7026* C   7 s( 25.64%)p 2.90( 74.36%)
                                            0.0001  0.5063  0.4682 -0.7046  0.1673
    51. (0.01208) BD*( 1) C   2 - H  15  
                ( 48.96%)   0.6997* C   2 s( 24.71%)p 3.05( 75.29%)
                                            0.0000 -0.4971  0.0528  0.1722 -0.8488
                ( 51.04%)  -0.7144* H  15 s(100.00%)
                                           -1.0000
    52. (0.02727) BD*( 1) C   3 - C   5  
                ( 49.33%)   0.7024* C   3 s( 26.70%)p 2.74( 73.30%)
                                            0.0000 -0.5167  0.3199  0.6591  0.4431
                ( 50.67%)  -0.7118* C   5 s( 25.28%)p 2.96( 74.72%)
                                           -0.0001 -0.5028 -0.2769 -0.6799 -0.4564
    53. (0.02698) BD*( 1) C   3 - C   7  
                ( 50.70%)   0.7120* C   3 s( 25.45%)p 2.93( 74.55%)
                                            0.0000  0.5045  0.8371  0.1106 -0.1805
                ( 49.30%)  -0.7022* C   7 s( 25.09%)p 2.99( 74.91%)
                                            0.0000  0.5009 -0.8345 -0.1542  0.1700
    54. (0.02153) BD*( 1) C   3 - O   8  
                ( 59.01%)   0.7682* C   3 s( 22.38%)p 3.47( 77.62%)
                                            0.0000  0.4731 -0.4313  0.7336 -0.2281
                ( 40.99%)  -0.6403* O   8 s( 16.65%)p 5.01( 83.35%)
                                            0.0000  0.4080  0.4816 -0.7240  0.2783
    55. (0.02420) BD*( 1) C   3 - H  16  
                ( 49.48%)   0.7035* C   3 s( 25.46%)p 2.93( 74.54%)
                                            0.0000 -0.5046  0.1049  0.1235 -0.8480
                ( 50.52%)  -0.7107* H  16 s(100.00%)
                                           -1.0000
    56. (0.01492) BD*( 1) C   4 - C   5  
                ( 49.55%)   0.7039* C   4 s( 25.30%)p 2.95( 74.70%)
                                           -0.0001 -0.5030  0.4743 -0.7030  0.1669
                ( 50.45%)  -0.7103* C   5 s( 24.86%)p 3.02( 75.14%)
                                            0.0000 -0.4986 -0.4787  0.6955 -0.1964
    57. (0.01143) BD*( 1) C   4 - C   6  
                ( 50.03%)   0.7073* C   4 s( 25.13%)p 2.98( 74.87%)
                                            0.0000  0.5013  0.8317  0.1605 -0.1767
                ( 49.97%)  -0.7069* C   6 s( 25.11%)p 2.98( 74.89%)
                                            0.0000  0.5011 -0.8375 -0.1237  0.1793
    58. (0.00851) BD*( 1) C   4 - H  17  
                ( 48.51%)   0.6965* C   4 s( 24.91%)p 3.01( 75.09%)
                                            0.0000 -0.4991  0.2772  0.6600  0.4883
                ( 51.49%)  -0.7176* H  17 s(100.00%)
                                           -1.0000
    59. (0.01065) BD*( 1) C   4 - H  18  
                ( 48.66%)   0.6976* C   4 s( 24.66%)p 3.05( 75.34%)
                                            0.0000 -0.4966  0.0806  0.2107 -0.8381
                ( 51.34%)  -0.7165* H  18 s(100.00%)
                                           -1.0000
    60. (0.02251) BD*( 1) C   5 - C   9  
                ( 49.68%)   0.7049* C   5 s( 25.50%)p 2.92( 74.50%)
                                           -0.0001 -0.5049  0.8291  0.1574 -0.1813
                ( 50.32%)  -0.7093* C   9 s( 25.42%)p 2.93( 74.58%)
                                           -0.0001 -0.5042 -0.8305 -0.2147  0.1000
    61. (0.01215) BD*( 1) C   5 - H  19  
                ( 48.80%)   0.6985* C   5 s( 24.37%)p 3.10( 75.63%)
                                            0.0000 -0.4936 -0.0826 -0.1710  0.8487
                ( 51.20%)  -0.7156* H  19 s(100.00%)
                                           -1.0000
    62. (0.01002) BD*( 1) C   6 - H  20  
                ( 48.59%)   0.6970* C   6 s( 24.70%)p 3.05( 75.30%)
                                            0.0000 -0.4970 -0.0945 -0.1397  0.8512
                ( 51.41%)  -0.7170* H  20 s(100.00%)
                                           -1.0000
    63. (0.00856) BD*( 1) C   6 - H  21  
                ( 48.54%)   0.6967* C   6 s( 24.88%)p 3.02( 75.12%)
                                            0.0000 -0.4988 -0.4510  0.7049 -0.2256
                ( 51.46%)  -0.7173* H  21 s(100.00%)
                                           -1.0000
    64. (0.01029) BD*( 1) C   7 - H  22  
                ( 48.29%)   0.6949* C   7 s( 24.63%)p 3.06( 75.37%)
                                            0.0000 -0.4962 -0.0876 -0.2162  0.8363
                ( 51.71%)  -0.7191* H  22 s(100.00%)
                                           -1.0000
    65. (0.00952) BD*( 1) C   7 - H  23  
                ( 48.83%)   0.6988* C   7 s( 24.64%)p 3.06( 75.36%)
                                            0.0000 -0.4964 -0.2770 -0.6581 -0.4937
                ( 51.17%)  -0.7153* H  23 s(100.00%)
                                           -1.0000
    66. (0.00750) BD*( 1) O   8 - H  24  
                ( 40.56%)   0.6369* O   8 s( 16.77%)p 4.96( 83.23%)
                                            0.0000 -0.4096 -0.3562 -0.6650 -0.5130
                ( 59.44%)  -0.7710* H  24 s(100.00%)
                                           -1.0000
    67. (0.01020) BD*( 1) C   9 - C  10  
                ( 50.65%)   0.7117* C   9 s( 25.14%)p 2.98( 74.86%)
                                            0.0000  0.5014 -0.5029  0.5860 -0.3902
                ( 49.35%)  -0.7025* C  10 s( 25.78%)p 2.88( 74.22%)
                                            0.0001  0.5077  0.5368 -0.5404  0.4026
    68. (0.01071) BD*( 1) C   9 - C  11  
                ( 51.08%)   0.7147* C   9 s( 25.27%)p 2.96( 74.73%)
                                            0.0000  0.5027 -0.1945 -0.0366  0.8415
                ( 48.92%)  -0.6994* C  11 s( 25.87%)p 2.87( 74.13%)
                                            0.0001  0.5086  0.2330  0.0634 -0.8264
    69. (0.01094) BD*( 1) C   9 - H  25  
                ( 49.10%)   0.7007* C   9 s( 24.16%)p 3.14( 75.84%)
                                            0.0000 -0.4916  0.1400  0.7805  0.3600
                ( 50.90%)  -0.7134* H  25 s(100.00%)
                                           -1.0000
    70. (0.00712) BD*( 1) C  10 - H  26  
                ( 47.52%)   0.6893* C  10 s( 25.07%)p 2.99( 74.93%)
                                            0.0000 -0.5007 -0.0032 -0.7693 -0.3969
                ( 52.48%)  -0.7244* H  26 s(100.00%)
                                           -1.0000
    71. (0.00532) BD*( 1) C  10 - H  27  
                ( 48.22%)   0.6944* C  10 s( 24.83%)p 3.03( 75.17%)
                                            0.0000 -0.4983 -0.2480 -0.1001  0.8247
                ( 51.78%)  -0.7196* H  27 s(100.00%)
                                           -1.0000
    72. (0.00480) BD*( 1) C  10 - H  28  
                ( 48.46%)   0.6961* C  10 s( 24.32%)p 3.11( 75.68%)
                                            0.0000 -0.4932  0.8065  0.3258 -0.0160
[...]
   21      -0.2788       -0.7207       0.4419        -1.2055       0.9267
   22      19.5557       10.2981       9.2576         5.1459      14.4097
   26      -0.2748       -1.2846       1.0098        -0.8835       0.6087
   39     271.1752       -0.0057     271.1809        -0.0038     271.1790
   43      34.0858       -1.0063      35.0920        -3.3465      37.4323
   44       5.1790      -33.6636      38.8426       -34.7751      39.9541
 Sum      354.5999      -19.8038     374.4037       -23.6319     378.2318

 Contributions to Isotropic shielding for atom    9 (   211.8761 ppm):
                         Standard Origin              Atomic Origin
 NLMO      Total    Paramagnetic  Diamagnetic   Paramagnetic  Diamagnetic
   10       0.0806       -0.3031       0.3837        -1.2171       1.2977
   14      -0.1363       -0.4853       0.3490        -1.0268       0.8905
   16       5.3884       -9.8612      15.2497        -2.2521       7.6406
   23      -1.9021       -5.2961       3.3940        -9.5622       7.6601
   24      -0.8240       -6.1606       5.3365        -8.3000       7.4759
   25       4.9003       -1.2440       6.1443        -5.9099      10.8102
   26       0.9694       -0.3513       1.3207        -0.0691       1.0385
   27       0.6992       -0.6411       1.3403        -0.3340       1.0332
   28       0.6191       -0.3180       0.9371        -0.4099       1.0290
   29       0.9209       -0.2941       1.2150        -0.1098       1.0307
   30       0.6462       -0.5476       1.1938        -0.3665       1.0128
   31       0.5879       -0.2186       0.8065        -0.4497       1.0376
   40     199.9248       -0.0024     199.9272         0.0028     199.9220
 Sum      211.8744      -25.7235     237.5978       -30.0043     241.8786

 Contributions to Isotropic shielding for atom   10 (   220.1491 ppm):
                         Standard Origin              Atomic Origin
 NLMO      Total    Paramagnetic  Diamagnetic   Paramagnetic  Diamagnetic
   10       0.1103       -0.2599       0.3702        -1.0308       1.1411
   17      -0.2320       -0.0927      -0.1393        -1.1687       0.9366
   23       4.3154      -10.9547      15.2701        -3.5095       7.8249
   24      -0.5009        0.0277      -0.5286        -1.1896       0.6887
   25       0.2618        0.1724       0.0894        -0.7888       1.0506
   26       5.9911       -4.9495      10.9405        -5.3960      11.3870
   27       5.5548       -4.7120      10.2668        -5.5528      11.1075
   28       4.5936        2.9106       1.6830        -6.3831      10.9767
   41     200.0752       -0.0038     200.0790         0.0022     200.0730
 Sum      220.1692      -17.8619     238.0311       -25.0170     245.1862

 Contributions to Isotropic shielding for atom   11 (   224.0175 ppm):
                         Standard Origin              Atomic Origin
 NLMO      Total    Paramagnetic  Diamagnetic   Paramagnetic  Diamagnetic
   23      -0.4071        0.0328      -0.4398        -1.1006       0.6935
   24       4.1033       -9.6151      13.7184        -3.9157       8.0190
   29       6.6764       -4.8032      11.4796        -4.4798      11.1561
   30       6.7822       -4.7458      11.5280        -4.2843      11.0665
   31       5.9415        3.8756       2.0659        -5.1556      11.0971
   42     200.0737       -0.0025     200.0762         0.0016     200.0721
 Sum      223.1700      -15.2583     238.4283       -18.9344     242.1043

 Contributions to Isotropic shielding for atom   12 (    32.5117 ppm):
                         Standard Origin              Atomic Origin
 NLMO      Total    Paramagnetic  Diamagnetic   Paramagnetic  Diamagnetic
    1       1.4892       -0.7716       2.2608         0.4940       0.9952
    2      26.3621        0.1745      26.1876         0.4301      25.9320
    3       1.8912        2.3314      -0.4402         0.0509       1.8403
    4       1.9320        1.4803       0.4517         0.0889       1.8431
    6      -0.1318        0.6781      -0.8099        -1.0181       0.8863
 Sum       31.5427        3.8926      27.6501         0.0458      31.4969

 Contributions to Isotropic shielding for atom   13 (    32.4547 ppm):
                         Standard Origin              Atomic Origin
 NLMO      Total    Paramagnetic  Diamagnetic   Paramagnetic  Diamagnetic
    1       1.4120       -0.5080       1.9200         0.4126       0.9994
    2       1.9063        2.2632      -0.3569         0.0688       1.8375
    3      26.3464        0.1262      26.2202         0.4432      25.9032
    4       1.9134        1.6965       0.2169         0.0698       1.8435
    5      -0.1655        0.7974      -0.9629        -1.0659       0.9004
 Sum       31.4125        4.3753      27.0373        -0.0714      31.4839

 Contributions to Isotropic shielding for atom   14 (    32.6480 ppm):
                         Standard Origin              Atomic Origin
 NLMO      Total    Paramagnetic  Diamagnetic   Paramagnetic  Diamagnetic
    1       1.6599       -1.3033       2.9631         0.7687       0.8912
    2       1.9535        1.6472       0.3063         0.1306       1.8229
    3       1.9300        1.9399      -0.0098         0.1035       1.8266
    4      26.3231        0.2810      26.0422         0.4364      25.8868
 Sum       31.8665        2.5648      29.3017         1.4391      30.4275

 Contributions to Isotropic shielding for atom   15 (    32.9161 ppm):
                         Standard Origin              Atomic Origin
 NLMO      Total    Paramagnetic  Diamagnetic   Paramagnetic  Diamagnetic
    1       0.7865        2.2223      -1.4359        -0.1536       0.9401
    2       0.2609       -0.9670       1.2280        -0.6971       0.9580
    3       0.2660       -0.9191       1.1851        -0.6926       0.9586
    5       1.4817        0.4149       1.0668         0.6158       0.8659
    6       1.5552        0.0650       1.4902         0.6945       0.8608
    7      26.4677        0.0700      26.3976         0.3767      26.0910
 Sum       30.8180        0.8861      29.9319         0.1437      30.6743

 Contributions to Isotropic shielding for atom   16 (    32.2012 ppm):
                         Standard Origin              Atomic Origin
 NLMO      Total    Paramagnetic  Diamagnetic   Paramagnetic  Diamagnetic
    8       1.0222       -0.0869       1.1091        -0.0598       1.0819
   10       0.6834        0.8640      -0.1806        -0.8380       1.5214
   11      26.7368        0.4014      26.3354         0.6910      26.0459
   22       0.2998       -0.8039       1.1037        -0.6665       0.9663
   29      -0.2797       -1.3792       1.0995        -1.0269       0.7472
 Sum       28.4625       -1.0047      29.4671        -1.9003      30.3627

 Contributions to Isotropic shielding for atom   17 (    32.4121 ppm):
                         Standard Origin              Atomic Origin
 NLMO      Total    Paramagnetic  Diamagnetic   Paramagnetic  Diamagnetic
   12       1.3299        0.4707       0.8592         0.3843       0.9456
   13       0.9802        1.3455      -0.3653        -0.0397       1.0199
   14      26.4398        0.0737      26.3661         0.4886      25.9512
   15       2.0556        1.3187       0.7369         0.3134       1.7422
   18       0.2066       -0.3624       0.5690        -0.7983       1.0049
   25      -0.1734       -1.0749       0.9015        -0.8884       0.7150
 Sum       30.8387        1.7714      29.0673        -0.5402      31.3789

 Contributions to Isotropic shielding for atom   18 (    32.6864 ppm):
                         Standard Origin              Atomic Origin
 NLMO      Total    Paramagnetic  Diamagnetic   Paramagnetic  Diamagnetic
   12       1.3778       -0.0250       1.4029         0.4878       0.8901
   13       1.0846        0.8710       0.2136         0.1381       0.9465
   14       1.9821        1.5009       0.4812         0.2371       1.7450
   15      26.4769        0.1755      26.3014         0.4187      26.0582
   24       0.0003       -0.5697       0.5700        -1.0030       1.0034
   30      -0.3844       -1.3399       0.9555        -0.8080       0.4236
 Sum       30.5374        0.6128      29.9246        -0.5294      31.0668

 Contributions to Isotropic shielding for atom   19 (    32.3834 ppm):
                         Standard Origin              Atomic Origin
 NLMO      Total    Paramagnetic  Diamagnetic   Paramagnetic  Diamagnetic
    8       1.2918        0.6060       0.6858         0.3664       0.9254
   10       0.1535       -0.4587       0.6121        -1.3281       1.4816
   12       1.1873        0.8073       0.3799         0.2342       0.9531
   16       1.0730        1.2802      -0.2072        -0.0624       1.1354
   17      26.3496        0.0899      26.2596         0.4328      25.9167
   23      -0.0267       -0.7271       0.7004        -1.0333       1.0066
   27      -0.1597       -1.5685       1.4088        -1.0462       0.8865
 Sum       29.8687        0.0292      29.8395        -2.4366      32.3053

 Contributions to Isotropic shielding for atom   20 (    32.7280 ppm):
                         Standard Origin              Atomic Origin
 NLMO      Total    Paramagnetic  Diamagnetic   Paramagnetic  Diamagnetic
    4      -0.0446       -1.2977       1.2531        -0.9401       0.8955
    5       1.2425        0.5866       0.6559         0.4231       0.8194
   13       1.3752        0.0097       1.3655         0.4596       0.9157
   18      26.4447        0.1875      26.2572         0.4415      26.0032
   19       1.9372        1.9893      -0.0522         0.1893       1.7479
 Sum       30.9551        1.4755      29.4796         0.5734      30.3817

 Contributions to Isotropic shielding for atom   21 (    32.4273 ppm):
                         Standard Origin              Atomic Origin
 NLMO      Total    Paramagnetic  Diamagnetic   Paramagnetic  Diamagnetic
    3      -0.0774       -1.4280       1.3506        -0.9611       0.8837
    5       0.9908        1.2060      -0.2153         0.0863       0.9045
   13       1.1956        0.7454       0.4503         0.2033       0.9923
   15       0.1809        0.1564       0.0246        -0.8303       1.0112
   18       1.9865        1.6624       0.3241         0.2347       1.7519
   19      26.4742       -0.0002      26.4743         0.4914      25.9828
 Sum       30.7507        2.3420      28.4087        -0.7757      31.5264

 Contributions to Isotropic shielding for atom   22 (    32.4624 ppm):
                         Standard Origin              Atomic Origin
 NLMO      Total    Paramagnetic  Diamagnetic   Paramagnetic  Diamagnetic
    4      -0.0415       -1.4107       1.3692        -0.9375       0.8960
    6       1.0645        0.7837       0.2808         0.2191       0.8454
    9       1.3886        0.0386       1.3500         0.5324       0.8562
   10      -0.0675       -0.0654      -0.0021        -1.3999       1.3324
   20      26.2700        0.1910      26.0789         0.4417      25.8283
   21       1.9323        1.6158       0.3166         0.1307       1.8017
 Sum       30.5463        1.1529      29.3935        -1.0136      31.5599

 Contributions to Isotropic shielding for atom   23 (    32.7696 ppm):
                         Standard Origin              Atomic Origin
 NLMO      Total    Paramagnetic  Diamagnetic   Paramagnetic  Diamagnetic
    2      -0.0835       -1.5245       1.4409        -0.9669       0.8834
    6       0.9537        1.2308      -0.2771         0.0243       0.9294
    9       1.2942        0.5058       0.7884         0.3989       0.8953
   10      -0.1881        0.3243      -0.5124        -1.3178       1.1297
   20       1.9907        1.4664       0.5242         0.1488       1.8419
   21      26.5800        0.0635      26.5165         0.4566      26.1234
 Sum       30.5470        2.0664      28.4806        -1.2561      31.8031

 Contributions to Isotropic shielding for atom   24 (    35.0419 ppm):
                         Standard Origin              Atomic Origin
 NLMO      Total    Paramagnetic  Diamagnetic   Paramagnetic  Diamagnetic
    9      -0.1900        0.3318      -0.5218        -1.2350       1.0450
   10       1.4583        2.1635      -0.7052         0.7541       0.7042
   11       0.1603        0.2072      -0.0469        -0.8516       1.0119
   21      -0.0648       -0.5594       0.4945        -1.0208       0.9560
   22      23.0850       -0.4912      23.5762        -0.1083      23.1933
   43       4.1482        0.9202       3.2280         2.2150       1.9332
   44       5.5613        2.4280       3.1332         2.3989       3.1624
 Sum       34.1582        5.0002      29.1580         2.1522      32.0061

 Contributions to Isotropic shielding for atom   25 (    32.4742 ppm):
                         Standard Origin              Atomic Origin
 NLMO      Total    Paramagnetic  Diamagnetic   Paramagnetic  Diamagnetic
   12      -0.1608        0.3251      -0.4859        -1.2528       1.0920
   14      -0.1274       -0.5277       0.4003        -1.0161       0.8887
   16       1.6813        0.0408       1.6405         0.6533       1.0281
   23       0.8618        2.0578      -1.1960        -0.2159       1.0776
   24       0.9373        1.6852      -0.7479        -0.0885       1.0258
   25      26.5855       -0.1556      26.7411         0.4581      26.1274
   28       0.1922       -0.6538       0.8460        -0.8377       1.0299
 Sum       29.9700        2.7719      27.1981        -2.2995      32.2695

 Contributions to Isotropic shielding for atom   26 (    31.8859 ppm):
                         Standard Origin              Atomic Origin
 NLMO      Total    Paramagnetic  Diamagnetic   Paramagnetic  Diamagnetic
    8      -0.0919        0.1430      -0.2348        -1.0121       0.9203
   23       1.5212       -0.9310       2.4522         0.6324       0.8888
   24      -0.1600        0.2488      -0.4088        -1.0971       0.9371
   26      26.0158        0.3031      25.7126         0.4318      25.5840
   27       2.0047        0.6352       1.3695         0.1896       1.8152
   28       1.8555        2.1135      -0.2579         0.0008       1.8548
   43      -0.6605       -0.0913      -0.5693         0.5524      -1.2129
 Sum       30.4849        2.4213      28.0636        -0.3023      30.7872

 Contributions to Isotropic shielding for atom   27 (    32.3373 ppm):
                         Standard Origin              Atomic Origin
 NLMO      Total    Paramagnetic  Diamagnetic   Paramagnetic  Diamagnetic
   10       0.1101       -0.2525       0.3626        -0.8922       1.0023
   16      -0.0563        0.0296      -0.0859        -1.0406       0.9843
   23       1.5852       -0.8170       2.4022         0.6105       0.9747
   26       2.0682        0.6548       1.4134         0.2054       1.8628
   27      26.3587        0.2951      26.0636         0.4191      25.9395
   28       1.8787        2.2007      -0.3220         0.0570       1.8218
 Sum       31.9445        2.1106      29.8339        -0.6408      32.5854

 Contributions to Isotropic shielding for atom   28 (    32.4216 ppm):
                         Standard Origin              Atomic Origin
 NLMO      Total    Paramagnetic  Diamagnetic   Paramagnetic  Diamagnetic
   23       1.1856        0.5177       0.6679         0.1786       1.0069
   24      -0.1492        0.7098      -0.8590        -1.0540       0.9048
   25       0.1157        0.5691      -0.4534        -0.8845       1.0002
   26       1.9699        1.7883       0.1816         0.0721       1.8978
   27       1.9369        1.8363       0.1007         0.0819       1.8550
   28      26.5325       -0.0032      26.5357         0.4556      26.0768
 Sum       31.5914        5.4180      26.1734        -1.1502      32.7416

 Contributions to Isotropic shielding for atom   29 (    32.5457 ppm):
                         Standard Origin              Atomic Origin
 NLMO      Total    Paramagnetic  Diamagnetic   Paramagnetic  Diamagnetic
    8      -0.1315        0.0575      -0.1889        -1.1180       0.9865
   10       0.0096       -0.0371       0.0467        -1.1871       1.1967
   23      -0.1209        0.1384      -0.2592        -1.0055       0.8846
   24       1.5081       -0.6650       2.1731         0.5675       0.9406
   29      26.2745        0.2744      26.0000         0.3866      25.8879
   30       2.1132        0.4118       1.7015         0.3010       1.8122
   31       1.9714        2.0722      -0.1008         0.1215       1.8500
 Sum       31.6245        2.2522      29.3723        -1.9339      33.5584

 Contributions to Isotropic shielding for atom   30 (    32.6058 ppm):
                         Standard Origin              Atomic Origin
 NLMO      Total    Paramagnetic  Diamagnetic   Paramagnetic  Diamagnetic
   12      -0.0618        0.0761      -0.1379        -1.0100       0.9483
   24       1.4985       -0.7306       2.2291         0.4848       1.0137
   29       2.1060        0.3956       1.7104         0.2733       1.8327
   30      26.3845        0.2769      26.1076         0.3720      26.0124
   31       1.9528        2.0240      -0.0712         0.0938       1.8590
 Sum       31.8801        2.0420      29.8381         0.2139      31.6661

 Contributions to Isotropic shielding for atom   31 (    32.4827 ppm):
                         Standard Origin              Atomic Origin
 NLMO      Total    Paramagnetic  Diamagnetic   Paramagnetic  Diamagnetic
   23      -0.1391        0.6099      -0.7490        -1.1063       0.9672
   24       1.1659        0.8795       0.2864         0.1296       1.0363
   29       2.0014        1.6573       0.3442         0.1358       1.8656
   30       2.0238        1.6467       0.3771         0.1679       1.8558
   31      26.3139       -0.0453      26.3593         0.4008      25.9132
 Sum       31.3659        4.7480      26.6179        -0.2722      31.6381
 
 1\1\GINC-COMPUTE-11-0\SP\RHF\STO-3G\C10H20O1\YTSAI.IQUIR\03-Aug-2021\0
 \\# rhf/STO-3G nmr pop=nbo\\comment\\0,1\C,0,0.85262352,0.423490435,-3
 .582383562\C,0,0.154487532,0.311744979,-2.228438731\C,0,-0.003038708,-
 1.041351298,-0.081938027\C,0,-0.278252478,1.468776055,-0.022882247\C,0
 ,0.214459985,0.234435487,0.760882681\C,0,0.379175971,1.577921142,-1.39
 704347\C,0,0.643786494,-0.921934585,-1.466486859\O,0,0.568064332,-2.16
 8464022,0.57274672\C,0,-0.415623542,0.212208597,2.187953554\C,0,0.3612
 82223,-0.675107293,3.166785723\C,0,-1.897066603,-0.173530882,2.2120749
 13\H,0,0.668407717,-0.46950484,-4.188882458\H,0,0.481292873,1.28966055
 5,-4.140125631\H,0,1.935839883,0.535458335,-3.464824729\H,0,-0.9225830
 95,0.202046236,-2.412212883\H,0,-1.074974216,-1.233049285,-0.206161498
 \H,0,-0.06148671,2.381727204,0.544681429\H,0,-1.365663134,1.427388998,
 -0.155472487\H,0,1.298513429,0.354882184,0.904263287\H,0,1.454127326,1
 .759871939,-1.270736594\H,0,-0.029869433,2.448297703,-1.923999692\H,0,
 1.736512623,-0.8940103,-1.356133258\H,0,0.432300613,-1.830340234,-2.04
 5270038\H,0,0.3816159,-2.951965862,0.027916752\H,0,-0.342172413,1.2336
 58622,2.586643861\H,0,0.214069545,-1.740115909,2.967842953\H,0,1.43380
 2353,-0.458873129,3.129568065\H,0,0.024220306,-0.490560166,4.193157624
 \H,0,-2.050065454,-1.214162304,1.909054903\H,0,-2.49176251,0.466902753
 ,1.554850821\H,0,-2.302024329,-0.065501116,3.224568881\\Version=EM64L-
 G09RevC.01\State=1-A\HF=-459.6221627\RMSD=6.491e-09\Dipole=-0.2535238,
 0.0334555,-0.4835592\Quadrupole=-0.2928784,1.4565758,-1.1636975,1.1420
 856,-0.3161346,2.2621282\PG=C01 [X(C10H20O1)]\\@


 ASKING FOR EFFICIENCY AND ADAPTABILITY IN THE SAME PROGRAM IS LIKE
 ASKING FOR A BEAUTIFUL AND MODEST WIFE ...
 WE'LL PROBABLY HAVE TO SETTLE FOR ONE OR THE OTHER.

             -- THE PSYCHOLOGY OF COMPUTER PROGRAMMING
                GERALD M. WEINBERG
 Job cpu time:  0 days  0 hours  0 minutes 39.9 seconds.
 File lengths (MBytes):  RWF=      5 Int=      0 D2E=      0 Chk=      1 Scr=      1
 Normal termination of Gaussian 09 at Tue Aug  3 16:32:39 2021.
