 Entering Gaussian System, Link 0=g09
 Input=/home/ytsai.iquir/menthol/03_menthol_M0028_MMFF_NMR_rhf_STO-3G_nbo.gjc
 Output=/home/ytsai.iquir/menthol/03_menthol_M0028_MMFF_NMR_rhf_STO-3G_nbo.log
 Initial command:
 /share/apps/Gaussian09/EM64T.SSE4.2-enabled/g09/l1.exe /tmp/Gau-13826.inp -scrdir=/tmp/
 Entering Link 1 = /share/apps/Gaussian09/EM64T.SSE4.2-enabled/g09/l1.exe PID=     13828.
  
 Copyright (c) 1988,1990,1992,1993,1995,1998,2003,2009,2011,
            Gaussian, Inc.  All Rights Reserved.
  
 This is part of the Gaussian(R) 09 program.  It is based on
 the Gaussian(R) 03 system (copyright 2003, Gaussian, Inc.),
 the Gaussian(R) 98 system (copyright 1998, Gaussian, Inc.),
 the Gaussian(R) 94 system (copyright 1995, Gaussian, Inc.),
 the Gaussian 92(TM) system (copyright 1992, Gaussian, Inc.),
 the Gaussian 90(TM) system (copyright 1990, Gaussian, Inc.),
 the Gaussian 88(TM) system (copyright 1988, Gaussian, Inc.),
 the Gaussian 86(TM) system (copyright 1986, Carnegie Mellon
 University), and the Gaussian 82(TM) system (copyright 1983,
 Carnegie Mellon University). Gaussian is a federally registered
 trademark of Gaussian, Inc.
  
 This software contains proprietary and confidential information,
 including trade secrets, belonging to Gaussian, Inc.
  
 This software is provided under written license and may be
 used, copied, transmitted, or stored only in accord with that
 written license.
  
 The following legend is applicable only to US Government
 contracts under FAR:
  
                    RESTRICTED RIGHTS LEGEND
  
 Use, reproduction and disclosure by the US Government is
 subject to restrictions as set forth in subparagraphs (a)
 and (c) of the Commercial Computer Software - Restricted
 Rights clause in FAR 52.227-19.
  
 Gaussian, Inc.
 340 Quinnipiac St., Bldg. 40, Wallingford CT 06492
  
  
 ---------------------------------------------------------------
 Warning -- This program may not be used in any manner that
 competes with the business of Gaussian, Inc. or will provide
 assistance to any competitor of Gaussian, Inc.  The licensee
 of this program is prohibited from giving any competitor of
 Gaussian, Inc. access to this program.  By using this program,
 the user acknowledges that Gaussian, Inc. is engaged in the
 business of creating and licensing software in the field of
 computational chemistry and represents and warrants to the
 licensee that it is not a competitor of Gaussian, Inc. and that
 it will not use this program in any manner prohibited above.
 ---------------------------------------------------------------
  

 Cite this work as:
 Gaussian 09, Revision C.01,
 M. J. Frisch, G. W. Trucks, H. B. Schlegel, G. E. Scuseria, 
 M. A. Robb, J. R. Cheeseman, G. Scalmani, V. Barone, B. Mennucci, 
 G. A. Petersson, H. Nakatsuji, M. Caricato, X. Li, H. P. Hratchian, 
 A. F. Izmaylov, J. Bloino, G. Zheng, J. L. Sonnenberg, M. Hada, 
 M. Ehara, K. Toyota, R. Fukuda, J. Hasegawa, M. Ishida, T. Nakajima, 
 Y. Honda, O. Kitao, H. Nakai, T. Vreven, J. A. Montgomery, Jr., 
 J. E. Peralta, F. Ogliaro, M. Bearpark, J. J. Heyd, E. Brothers, 
 K. N. Kudin, V. N. Staroverov, T. Keith, R. Kobayashi, J. Normand, 
 K. Raghavachari, A. Rendell, J. C. Burant, S. S. Iyengar, J. Tomasi, 
 M. Cossi, N. Rega, J. M. Millam, M. Klene, J. E. Knox, J. B. Cross, 
 V. Bakken, C. Adamo, J. Jaramillo, R. Gomperts, R. E. Stratmann, 
 O. Yazyev, A. J. Austin, R. Cammi, C. Pomelli, J. W. Ochterski, 
 R. L. Martin, K. Morokuma, V. G. Zakrzewski, G. A. Voth, 
 P. Salvador, J. J. Dannenberg, S. Dapprich, A. D. Daniels, 
 O. Farkas, J. B. Foresman, J. V. Ortiz, J. Cioslowski, 
 and D. J. Fox, Gaussian, Inc., Wallingford CT, 2010.
 
 ******************************************
 Gaussian 09:  EM64L-G09RevC.01 23-Sep-2011
                24-May-2020 
 ******************************************
 %nprocshared=4
 Will use up to    4 processors via shared memory.
 ------------------------
 # rhf/STO-3G nmr pop=nbo
 ------------------------
 1/38=1/1;
 2/12=2,17=6,18=5,40=1/2;
 3/6=3,11=1,16=1,25=1,30=1,116=1/1,2,8,3;
 4//1;
 5/5=2,38=5/2;
 8/6=1,10=90,11=11/1;
 10/13=100,45=16/2;
 6/7=2,8=2,9=2,10=2,28=1,64=1/1,7;
 99/9=1/99;
 -------
 comment
 -------
 Charge =  0 Multiplicity = 1
 Symbolic Z-Matrix:
 6                     0.55914   0.73887  -2.95219 
 6                    -0.67784   0.05343  -2.36834 
 6                     0.42861  -1.08194  -0.35239 
 6                    -0.68982   1.19005  -0.08923 
 6                    -0.27706  -0.11402   0.63176 
 6                    -1.43737   0.95813  -1.39927 
 6                    -0.32908  -1.25963  -1.67244 
 8                     0.53147  -2.38097   0.23148 
 6                     0.5912    0.22019   1.8962 
 6                     1.0485   -1.01471   2.68096 
 6                    -0.14484   1.15407   2.87004 
 1                     1.05134   0.08521  -3.68033 
 1                     0.27797   1.66134  -3.47134 
 1                     1.29616   0.99758  -2.18651 
 1                    -1.3443   -0.17512  -3.21026 
 1                     1.44657  -0.72575  -0.54858 
 1                     0.19863   1.80461  -0.27863 
 1                    -1.3473    1.78317   0.55598 
 1                    -1.19144  -0.61046   0.98752 
 1                    -1.65226   1.9233   -1.87343 
 1                    -2.40958   0.50135  -1.17254 
 1                     0.25178  -1.90349  -2.3456 
 1                    -1.25544  -1.81752  -1.47584 
 1                     1.03447  -2.94144  -0.38374 
 1                     1.49625   0.74503   1.56189 
 1                     0.20501  -1.67235   2.9152 
 1                     1.80013  -1.58357   2.12645 
 1                     1.52183  -0.72745   3.6267 
 1                    -1.11696   0.73902   3.15638 
 1                    -0.3048    2.14509   2.43568 
 1                     0.43901   1.30798   3.78441 
 
                          Input orientation:                          
 ---------------------------------------------------------------------
 Center     Atomic      Atomic             Coordinates (Angstroms)
 Number     Number       Type             X           Y           Z
 ---------------------------------------------------------------------
      1          6           0        0.559143    0.738870   -2.952192
      2          6           0       -0.677842    0.053432   -2.368344
      3          6           0        0.428611   -1.081938   -0.352387
      4          6           0       -0.689816    1.190050   -0.089226
      5          6           0       -0.277060   -0.114023    0.631759
      6          6           0       -1.437367    0.958126   -1.399274
      7          6           0       -0.329083   -1.259628   -1.672437
      8          8           0        0.531474   -2.380967    0.231483
      9          6           0        0.591201    0.220189    1.896198
     10          6           0        1.048496   -1.014715    2.680962
     11          6           0       -0.144836    1.154068    2.870037
     12          1           0        1.051338    0.085211   -3.680326
     13          1           0        0.277970    1.661343   -3.471337
     14          1           0        1.296159    0.997581   -2.186512
     15          1           0       -1.344295   -0.175120   -3.210257
     16          1           0        1.446575   -0.725749   -0.548575
     17          1           0        0.198626    1.804613   -0.278629
     18          1           0       -1.347295    1.783174    0.555981
     19          1           0       -1.191437   -0.610461    0.987516
     20          1           0       -1.652257    1.923303   -1.873429
     21          1           0       -2.409576    0.501349   -1.172543
     22          1           0        0.251779   -1.903490   -2.345600
     23          1           0       -1.255444   -1.817523   -1.475841
     24          1           0        1.034470   -2.941441   -0.383740
     25          1           0        1.496245    0.745032    1.561895
     26          1           0        0.205012   -1.672355    2.915202
     27          1           0        1.800131   -1.583567    2.126450
     28          1           0        1.521826   -0.727452    3.626702
     29          1           0       -1.116959    0.739019    3.156378
     30          1           0       -0.304803    2.145089    2.435678
     31          1           0        0.439015    1.307980    3.784407
 ---------------------------------------------------------------------
                    Distance matrix (angstroms):
                    1          2          3          4          5
     1  C    0.000000
     2  C    1.529980   0.000000
     3  C    3.176691   2.564642   0.000000
     4  C    3.155953   2.546846   2.545989   0.000000
     5  C    3.777746   3.031383   1.550282   1.546219   0.000000
     6  C    2.538835   1.527889   2.956299   1.526056   2.573113
     7  C    2.533913   1.526448   1.532386   2.938981   2.573798
     8  O    4.457571   3.761362   1.427922   3.787686   2.439874
     9  C    4.876160   4.452482   2.603479   2.554123   1.569835
    10  C    5.920046   5.442120   3.096769   3.944193   2.601457
    11  C    5.879314   5.379232   3.963910   3.009242   2.575932
    12  H    1.095310   2.170800   3.581229   4.141049   4.516460
    13  H    1.095229   2.171532   4.156457   3.549282   4.505039
    14  H    1.093796   2.195715   2.905349   2.894780   3.413698
    15  H    2.127217   1.097821   3.483236   3.468842   3.987958
    16  H    2.951274   2.903761   1.096180   2.906106   2.176767
    17  H    2.900641   2.863868   2.896637   1.096764   2.176292
    18  H    4.127028   3.462926   3.491109   1.095613   2.179564
    19  H    4.517359   3.459239   2.154574   2.157044   1.099591
    20  H    2.730734   2.165836   3.959174   2.155767   3.509677
    21  H    3.469418   2.151621   3.351829   2.146033   2.860386
    22  H    2.728460   2.166623   2.163126   3.943071   3.513762
    23  H    3.465182   2.151896   2.153898   3.359781   2.881167
    24  H    4.513045   3.979941   1.955965   4.486549   3.278055
    25  H    4.610334   4.544419   2.853442   2.775447   2.178931
    26  H    6.353403   5.627933   3.328022   4.245076   2.806227
    27  H    5.720697   5.387327   2.877035   4.336128   2.950997
    28  H    6.808723   6.433420   4.141730   4.730359   3.547107
    29  H    6.334347   5.584390   4.244538   3.304516   2.794067
    30  H    5.634981   5.252887   4.327228   2.726807   2.891104
    31  H    6.761663   6.377900   4.777539   4.036484   3.531862
                    6          7          8          9         10
     6  C    0.000000
     7  C    2.494262   0.000000
     8  O    4.205383   2.371260   0.000000
     9  C    3.939514   3.971390   3.088828   0.000000
    10  C    5.169133   4.572722   2.852000   1.532959   0.000000
    11  C    4.464980   5.147227   4.462716   1.536959   2.482622
    12  H    3.486952   2.783123   4.653444   5.597103   6.455682
    13  H    2.780349   3.483766   5.487751   5.566459   6.753205
    14  H    2.844902   2.828547   4.224456   4.215426   5.272852
    15  H    2.138356   2.138154   4.497760   5.475243   6.413800
    16  H    3.446192   2.168191   2.045886   2.757422   3.266784
    17  H    2.156122   3.407455   4.229667   2.719262   4.174933
    18  H    2.124110   3.906565   4.579863   2.827874   4.252475
    19  H    2.866656   2.870614   2.583544   2.166445   2.836985
    20  H    1.096617   3.452859   5.265556   4.705719   6.055452
    21  H    1.097835   2.771170   4.350725   4.301265   5.395017
    22  H    3.455081   1.097774   2.635824   4.755845   5.166333
    23  H    2.782657   1.099110   2.534857   4.351208   4.819922
    24  H    4.727357   2.519626   0.972438   3.923074   3.620065
    25  H    4.173729   4.220354   3.531663   1.098327   2.132955
    26  H    5.313336   4.637029   2.794827   2.183858   1.094908
    27  H    5.419624   4.366925   2.415831   2.183590   1.093631
    28  H    6.071114   5.638258   3.904154   2.181452   1.095894
    29  H    4.572159   5.285148   4.583302   2.185189   2.826800
    30  H    4.171144   5.335663   5.103236   2.190685   3.446149
    31  H    5.523926   6.079452   5.122514   2.184442   2.642720
                   11         12         13         14         15
    11  C    0.000000
    12  H    6.743927   0.000000
    13  H    6.375666   1.768041   0.000000
    14  H    5.260194   1.767438   1.768634   0.000000
    15  H    6.338408   2.455157   2.464245   3.065172   0.000000
    16  H    4.213456   3.259100   3.950491   2.382295   3.895728
    17  H    3.233462   3.905765   3.196905   2.344333   3.859325
    18  H    2.682636   5.155853   4.344608   3.889251   4.244935
    19  H    2.784389   5.225204   5.215518   4.341473   4.223054
    20  H    5.036319   3.735357   2.519466   3.106146   2.507056
    21  H    4.679480   4.294191   3.721954   3.873868   2.396813
    22  H    6.058781   2.525019   3.738449   3.087435   2.506461
    23  H    5.380563   3.715023   4.293702   3.865300   2.390310
    24  H    5.361998   4.475308   5.593851   4.339858   4.615220
    25  H    2.138152   5.302281   5.259015   3.762229   5.629279
    26  H    2.848350   6.877957   7.204634   5.860601   6.493329
    27  H    3.439544   6.088034   6.646927   5.051530   6.352289
    28  H    2.624962   7.367118   7.591816   6.067958   7.433957
    29  H    1.095116   7.202048   6.835431   5.868259   6.435943
    30  H    1.093791   6.594523   5.955373   5.024390   6.191970
    31  H    1.095739   7.588962   7.266129   6.040109   7.369200
                   16         17         18         19         20
    16  H    0.000000
    17  H    2.834250   0.000000
    18  H    3.914134   1.756960   0.000000
    19  H    3.054828   3.060716   2.437212   0.000000
    20  H    4.286662   2.446067   2.452483   3.849328   0.000000
    21  H    4.094509   3.049638   2.399856   2.717690   1.756908
    22  H    2.458436   4.245612   4.956581   3.855445   4.300307
    23  H    3.058218   4.082586   4.135427   2.743943   3.782766
    24  H    2.259711   4.820240   5.373813   3.502638   5.753557
    25  H    2.572887   2.488786   3.189878   3.064459   4.806542
    26  H    3.799381   4.721219   4.462764   2.606466   6.269705
    27  H    2.831363   4.452975   4.869046   3.345681   6.341621
    28  H    4.175955   4.838783   4.895347   3.786923   6.881333
    29  H    4.737502   3.829560   2.811650   2.555505   5.195001
    30  H    4.496088   2.781516   2.179686   3.236719   4.520313
    31  H    4.891418   4.100329   3.720141   3.763163   6.063263
                   21         22         23         24         25
    21  H    0.000000
    22  H    3.773874   0.000000
    23  H    2.607907   1.742295   0.000000
    24  H    4.933201   2.353475   2.774812   0.000000
    25  H    4.774093   4.881790   4.833872   4.193902   0.000000
    26  H    5.317022   5.266085   4.629824   3.630647   3.056547
    27  H    5.740371   4.743309   4.729458   2.954846   2.415251
    28  H    6.324446   6.218076   5.910789   4.606832   2.536196
    29  H    4.524035   6.255242   5.292687   5.541378   3.061249
    30  H    4.489009   6.289785   5.648539   5.967878   2.442833
    31  H    5.773775   6.922831   6.349029   5.982107   2.524719
                   26         27         28         29         30
    26  H    0.000000
    27  H    1.781689   0.000000
    28  H    1.770048   1.749611   0.000000
    29  H    2.760525   3.868406   3.055311   0.000000
    30  H    3.881073   4.292929   3.606467   1.776524   0.000000
    31  H    3.113306   3.600347   2.310917   1.771777   1.753022
                   31
    31  H    0.000000
 Stoichiometry    C10H20O
 Framework group  C1[X(C10H20O)]
 Deg. of freedom    87
 Full point group                 C1      NOp   1
 Largest Abelian subgroup         C1      NOp   1
 Largest concise Abelian subgroup C1      NOp   1
                         Standard orientation:                         
 ---------------------------------------------------------------------
 Center     Atomic      Atomic             Coordinates (Angstroms)
 Number     Number       Type             X           Y           Z
 ---------------------------------------------------------------------
      1          6           0       -2.843214   -0.279748    1.228315
      2          6           0       -2.428946   -0.143294   -0.238177
      3          6           0       -0.193593    1.065942    0.105820
      4          6           0       -0.256207   -1.467965   -0.133881
      5          6           0        0.600849   -0.194793   -0.321712
      6          6           0       -1.654302   -1.362371   -0.736399
      7          6           0       -1.606507    1.118731   -0.485022
      8          8           0        0.477431    2.241815   -0.348065
      9          6           0        1.967547   -0.347925    0.435301
     10          6           0        2.890469    0.869159    0.305363
     11          6           0        2.748949   -1.586459   -0.031269
     12          1           0       -3.439700    0.584490    1.539765
     13          1           0       -3.456704   -1.175524    1.372339
     14          1           0       -1.984477   -0.350883    1.902037
     15          1           0       -3.353035   -0.066661   -0.825883
     16          1           0       -0.241908    1.113958    1.199882
     17          1           0       -0.334811   -1.706245    0.933797
     18          1           0        0.235272   -2.324195   -0.608945
     19          1           0        0.831794   -0.094660   -1.392103
     20          1           0       -2.215253   -2.279846   -0.521594
     21          1           0       -1.562285   -1.304407   -1.828834
     22          1           0       -2.134954    1.998538   -0.095419
     23          1           0       -1.530486    1.290228   -1.568005
     24          1           0       -0.011801    3.010139   -0.007529
     25          1           0        1.754466   -0.480213    1.504608
     26          1           0        3.023208    1.158027   -0.742377
     27          1           0        2.502219    1.725286    0.864235
     28          1           0        3.881600    0.658317    0.722725
     29          1           0        2.897126   -1.574156   -1.116244
     30          1           0        2.234594   -2.513338    0.238387
     31          1           0        3.735420   -1.631023    0.443635
 ---------------------------------------------------------------------
 Rotational constants (GHZ):      1.6338698      0.7725111      0.5991782
 Standard basis: STO-3G (5D, 7F)
 There are    75 symmetry adapted basis functions of A   symmetry.
 Integral buffers will be    131072 words long.
 Raffenetti 1 integral format.
 Two-electron integral symmetry is turned on.
    75 basis functions,   225 primitive gaussians,    75 cartesian basis functions
    44 alpha electrons       44 beta electrons
       nuclear repulsion energy       694.3183959816 Hartrees.
 NAtoms=   31 NActive=   31 NUniq=   31 SFac= 1.00D+00 NAtFMM=   60 NAOKFM=F Big=F
 One-electron integrals computed using PRISM.
 NBasis=    75 RedAO= T  NBF=    75
 NBsUse=    75 1.00D-06 NBFU=    75
 Harris functional with IExCor=  205 diagonalized for initial guess.
 ExpMin= 1.69D-01 ExpMax= 1.31D+02 ExpMxC= 1.31D+02 IAcc=1 IRadAn=         1 AccDes= 0.00D+00
 HarFok:  IExCor=  205 AccDes= 0.00D+00 IRadAn=         1 IDoV= 1
 ScaDFX=  1.000000  1.000000  1.000000  1.000000
 FoFCou: FMM=F IPFlag=           0 FMFlag=      100000 FMFlg1=           0
         NFxFlg=           0 DoJE=T BraDBF=F KetDBF=T FulRan=T
         Omega=  0.000000  0.000000  1.000000  0.000000  0.000000 ICntrl=     500 IOpCl=  0
         NMat0=    1 NMatS0=    1 NMatT0=    0 NMatD0=    1 NMtDS0=    0 NMtDT0=    0
         I1Cent=           4 NGrid=           0.
 Petite list used in FoFCou.
 Initial guess orbital symmetries:
       Occupied  (A) (A) (A) (A) (A) (A) (A) (A) (A) (A) (A) (A)
                 (A) (A) (A) (A) (A) (A) (A) (A) (A) (A) (A) (A)
                 (A) (A) (A) (A) (A) (A) (A) (A) (A) (A) (A) (A)
                 (A) (A) (A) (A) (A) (A) (A) (A)
       Virtual   (A) (A) (A) (A) (A) (A) (A) (A) (A) (A) (A) (A)
                 (A) (A) (A) (A) (A) (A) (A) (A) (A) (A) (A) (A)
                 (A) (A) (A) (A) (A) (A) (A)
 The electronic state of the initial guess is 1-A.
 Requested convergence on RMS density matrix=1.00D-08 within 128 cycles.
 Requested convergence on MAX density matrix=1.00D-06.
 Requested convergence on             energy=1.00D-06.
 No special actions if energy rises.
 Keep R1 ints in memory in canonical form, NReq=4898789.
 SCF Done:  E(RHF) =  -459.616599346     A.U. after   10 cycles
             Convg  =    0.5083D-08             -V/T =  2.0090
 Range of M.O.s used for correlation:     1    75
 NBasis=    75 NAE=    44 NBE=    44 NFC=     0 NFV=     0
 NROrb=     75 NOA=    44 NOB=    44 NVA=    31 NVB=    31
          Differentiating once with respect to magnetic field using GIAOs.
          Electric field/nuclear overlap derivatives assumed to be zero.
          Keep R3 ints in memory in canonical form, NReq=4863575.
 FoFCou: FMM=F IPFlag=           0 FMFlag=           0 FMFlg1=           0
         NFxFlg=           0 DoJE=F BraDBF=F KetDBF=T FulRan=T
         Omega=  0.000000  0.000000  1.000000  0.000000  0.000000 ICntrl=    6100 IOpCl=  0
         NMat0=    1 NMatS0=    1 NMatT0=    0 NMatD0=    1 NMtDS0=    0 NMtDT0=    0
         I1Cent=           7 NGrid=          31.
 Symmetry not used in FoFCou.
          There are     3 degrees of freedom in the 1st order CPHF.  IDoFFX=0.
      3 vectors produced by pass  0 Test12= 4.55D-14 3.33D-08 XBig12= 7.57D+00 4.66D-01.
 AX will form     3 AO Fock derivatives at one time.
      3 vectors produced by pass  1 Test12= 4.55D-14 3.33D-08 XBig12= 1.34D-02 1.93D-02.
      3 vectors produced by pass  2 Test12= 4.55D-14 3.33D-08 XBig12= 1.17D-04 2.71D-03.
      3 vectors produced by pass  3 Test12= 4.55D-14 3.33D-08 XBig12= 2.09D-06 3.98D-04.
      3 vectors produced by pass  4 Test12= 4.55D-14 3.33D-08 XBig12= 1.55D-08 2.01D-05.
      3 vectors produced by pass  5 Test12= 4.55D-14 3.33D-08 XBig12= 2.12D-10 2.01D-06.
      3 vectors produced by pass  6 Test12= 4.55D-14 3.33D-08 XBig12= 2.40D-12 2.05D-07.
 Inverted reduced A of dimension    21 with in-core refinement.
 Calculating GIAO nuclear magnetic shielding tensors.
 SCF GIAO Magnetic shielding tensor (ppm):
      1  C    Isotropic =   223.3078   Anisotropy =    23.8387
   XX=   217.1462   YX=     1.2764   ZX=    -9.5355
   XY=     1.5579   YY=   219.8233   ZY=    -1.3322
   XZ=   -13.4635   YZ=    -1.5830   ZZ=   232.9540
   Eigenvalues:   211.0579   219.6654   239.2003
      2  C    Isotropic =   216.8614   Anisotropy =     3.3726
   XX=   216.0746   YX=     0.3936   ZX=    -3.3230
   XY=    -0.2894   YY=   218.5783   ZY=    -0.0829
   XZ=    -2.8828   YZ=     0.0728   ZZ=   215.9311
   Eigenvalues:   212.8990   218.5754   219.1097
      3  C    Isotropic =   188.7875   Anisotropy =    38.8313
   XX=   187.6697   YX=    11.2891   ZX=    -6.6750
   XY=     9.1447   YY=   207.5761   ZY=    -7.9715
   XZ=    -6.2343   YZ=   -10.4566   ZZ=   171.1167
   Eigenvalues:   167.9964   183.6910   214.6750
      4  C    Isotropic =   218.5343   Anisotropy =    17.7771
   XX=   225.9975   YX=     6.1222   ZX=     3.3759
   XY=     6.9309   YY=   220.5241   ZY=    -3.1683
   XZ=     3.5081   YZ=    -3.6780   ZZ=   209.0812
   Eigenvalues:   206.6648   218.5523   230.3857
      5  C    Isotropic =   208.4186   Anisotropy =    15.5924
   XX=   217.5862   YX=    -3.6638   ZX=     2.0716
   XY=    -1.3860   YY=   205.9503   ZY=     1.8054
   XZ=     5.2443   YZ=    -0.5378   ZZ=   201.7192
   Eigenvalues:   200.6471   205.7950   218.8135
      6  C    Isotropic =   217.1707   Anisotropy =    11.9511
   XX=   220.4348   YX=    -4.4424   ZX=    -1.9382
   XY=    -4.0293   YY=   219.0745   ZY=     6.2863
   XZ=    -0.3740   YZ=     2.3825   ZZ=   212.0026
   Eigenvalues:   209.8778   216.4961   225.1380
      7  C    Isotropic =   214.7843   Anisotropy =    17.4138
   XX=   222.7646   YX=     9.0479   ZX=    -0.1580
   XY=     3.5711   YY=   215.3950   ZY=    -4.1422
   XZ=     2.9896   YZ=     0.7148   ZZ=   206.1933
   Eigenvalues:   205.4297   212.5296   226.3935
      8  O    Isotropic =   353.5593   Anisotropy =    86.9307
   XX=   355.9781   YX=   -47.1851   ZX=    -3.4433
   XY=   -25.3014   YY=   375.4221   ZY=    17.9395
   XZ=   -16.4230   YZ=    32.3643   ZZ=   329.2776
   Eigenvalues:   316.6709   332.4938   411.5131
      9  C    Isotropic =   210.9858   Anisotropy =    18.6222
   XX=   220.6674   YX=    -1.1886   ZX=     5.9500
   XY=    -1.9516   YY=   207.8673   ZY=    -0.2935
   XZ=     7.9803   YZ=    -0.1832   ZZ=   204.4228
   Eigenvalues:   201.8280   207.7290   223.4006
     10  C    Isotropic =   220.5887   Anisotropy =    24.3125
   XX=   225.2495   YX=     9.6289   ZX=     2.8314
   XY=     8.2005   YY=   229.8739   ZY=    -1.2988
   XZ=     1.8506   YZ=    -4.5224   ZZ=   206.6428
   Eigenvalues:   205.5849   219.3842   236.7971
     11  C    Isotropic =   220.7391   Anisotropy =    26.2012
   XX=   222.8238   YX=   -10.7991   ZX=    -0.7124
   XY=    -9.8565   YY=   228.7751   ZY=     6.1441
   XZ=     0.4707   YZ=    10.2950   ZZ=   210.6185
   Eigenvalues:   206.4305   217.5803   238.2066
     12  H    Isotropic =    32.6880   Anisotropy =    14.0871
   XX=    33.5086   YX=    -4.8109   ZX=    -5.4649
   XY=    -4.9998   YY=    33.1128   ZY=     3.1877
   XZ=    -5.7003   YZ=     3.5549   ZZ=    31.4425
   Eigenvalues:    26.7089    29.2756    42.0794
     13  H    Isotropic =    32.6369   Anisotropy =    14.3361
   XX=    33.6851   YX=     5.9026   ZX=    -4.5237
   XY=     6.1373   YY=    34.0216   ZY=    -2.5651
   XZ=    -4.7243   YZ=    -3.0730   ZZ=    30.2039
   Eigenvalues:    26.6219    29.0944    42.1943
     14  H    Isotropic =    32.7201   Anisotropy =     7.8195
   XX=    34.4315   YX=    -0.2377   ZX=     1.6633
   XY=    -0.2387   YY=    26.7449   ZY=    -1.0410
   XZ=     1.7303   YZ=    -1.1105   ZZ=    36.9839
   Eigenvalues:    26.6326    33.5946    37.9331
     15  H    Isotropic =    32.4470   Anisotropy =    15.3672
   XX=    39.1659   YX=    -0.6886   ZX=     6.3274
   XY=    -0.8303   YY=    27.0045   ZY=    -0.4783
   XZ=     6.2978   YZ=    -0.4950   ZZ=    31.1706
   Eigenvalues:    26.9480    27.7011    42.6918
     16  H    Isotropic =    32.1983   Anisotropy =     6.2750
   XX=    31.4466   YX=     0.4663   ZX=    -1.1682
   XY=     0.1119   YY=    29.3446   ZY=     1.6178
   XZ=     0.0999   YZ=     2.2669   ZZ=    35.8035
   Eigenvalues:    28.7393    31.4739    36.3816
     17  H    Isotropic =    32.8745   Anisotropy =     9.1726
   XX=    32.5103   YX=     0.4503   ZX=    -0.3007
   XY=    -0.0224   YY=    30.3748   ZY=    -5.1312
   XZ=    -0.0909   YZ=    -5.4264   ZZ=    35.7384
   Eigenvalues:    27.1345    32.4995    38.9896
     18  H    Isotropic =    32.3004   Anisotropy =    12.7300
   XX=    34.3171   YX=    -3.5424   ZX=    -0.3637
   XY=    -3.7504   YY=    37.2127   ZY=     4.6420
   XZ=    -0.2012   YZ=     4.7150   ZZ=    25.3714
   Eigenvalues:    23.6581    32.4560    40.7871
     19  H    Isotropic =    32.4978   Anisotropy =     8.8263
   XX=    31.9560   YX=    -0.2616   ZX=    -2.4399
   XY=    -0.4582   YY=    28.1839   ZY=    -0.4197
   XZ=    -2.6691   YZ=    -0.5912   ZZ=    37.3537
   Eigenvalues:    28.0779    31.0336    38.3820
     20  H    Isotropic =    32.5050   Anisotropy =    14.5645
   XX=    32.6267   YX=     5.7801   ZX=    -0.1346
   XY=     5.9681   YY=    38.5834   ZY=     1.1866
   XZ=    -0.5213   YZ=     0.6527   ZZ=    26.3049
   Eigenvalues:    26.0844    29.2158    42.2147
     21  H    Isotropic =    32.4961   Anisotropy =    13.1729
   XX=    29.0203   YX=    -0.0672   ZX=     1.1774
   XY=    -0.1493   YY=    28.2610   ZY=     3.4893
   XZ=     1.4299   YZ=     3.5012   ZZ=    40.2069
   Eigenvalues:    27.1976    29.0126    41.2780
     22  H    Isotropic =    32.7895   Anisotropy =    12.9826
   XX=    33.0719   YX=    -4.4153   ZX=    -1.2074
   XY=    -4.7926   YY=    38.5145   ZY=     1.4186
   XZ=    -1.9690   YZ=     1.6191   ZZ=    26.7821
   Eigenvalues:    26.3847    30.5392    41.4446
     23  H    Isotropic =    32.2011   Anisotropy =    12.0066
   XX=    29.0039   YX=     0.4739   ZX=     1.6960
   XY=     0.3393   YY=    29.8216   ZY=    -4.8016
   XZ=     1.6883   YZ=    -4.8129   ZZ=    37.7778
   Eigenvalues:    26.9430    29.4547    40.2055
     24  H    Isotropic =    35.0134   Anisotropy =    19.1160
   XX=    31.8990   YX=    -3.7267   ZX=    -3.2833
   XY=    -2.3267   YY=    46.4731   ZY=     2.7550
   XZ=    -2.7510   YZ=     3.7085   ZZ=    26.6681
   Eigenvalues:    25.1436    32.1392    47.7575
     25  H    Isotropic =    32.6950   Anisotropy =     9.4845
   XX=    30.9464   YX=     0.0576   ZX=    -0.2445
   XY=    -0.1320   YY=    28.3507   ZY=    -1.5439
   XZ=    -0.2188   YZ=    -1.5454   ZZ=    38.7880
   Eigenvalues:    28.1251    30.9420    39.0180
     26  H    Isotropic =    32.2313   Anisotropy =    10.5786
   XX=    32.1208   YX=     2.5370   ZX=    -3.0783
   XY=     2.6269   YY=    30.5191   ZY=    -4.4786
   XZ=    -3.1205   YZ=    -4.3256   ZZ=    34.0540
   Eigenvalues:    27.4877    29.9224    39.2837
     27  H    Isotropic =    31.8794   Anisotropy =    10.3104
   XX=    31.9742   YX=    -0.4424   ZX=     0.7113
   XY=    -0.5001   YY=    36.3735   ZY=     5.5591
   XZ=     1.2872   YZ=     4.8861   ZZ=    27.2906
   Eigenvalues:    24.7423    32.1430    38.7530
     28  H    Isotropic =    32.5707   Anisotropy =    14.2644
   XX=    40.3544   YX=     1.0224   ZX=     4.8713
   XY=     1.1276   YY=    29.8034   ZY=     0.4181
   XZ=     4.7802   YZ=     0.4960   ZZ=    27.5544
   Eigenvalues:    25.9367    29.6952    42.0804
     29  H    Isotropic =    32.5336   Anisotropy =    11.2393
   XX=    31.2151   YX=    -2.5358   ZX=    -3.6412
   XY=    -2.5668   YY=    29.5700   ZY=     3.1017
   XZ=    -3.6187   YZ=     2.9619   ZZ=    36.8157
   Eigenvalues:    27.6922    29.8821    40.0265
     30  H    Isotropic =    32.3502   Anisotropy =    10.9622
   XX=    32.3121   YX=     0.5366   ZX=    -0.3390
   XY=     0.6805   YY=    39.3467   ZY=    -2.1067
   XZ=     0.1514   YZ=    -1.7387   ZZ=    25.3918
   Eigenvalues:    25.1317    32.2605    39.6584
     31  H    Isotropic =    32.5064   Anisotropy =    14.2017
   XX=    39.2864   YX=    -3.7318   ZX=     4.3573
   XY=    -3.9577   YY=    30.5699   ZY=    -0.4888
   XZ=     4.2087   YZ=    -0.5555   ZZ=    27.6630
   Eigenvalues:    26.1118    29.4332    41.9742
 End of Minotr Frequency-dependent properties file   721 does not exist.
 End of Minotr Frequency-dependent properties file   722 does not exist.

 **********************************************************************

            Population analysis using the SCF density.

 **********************************************************************

 Orbital symmetries:
       Occupied  (A) (A) (A) (A) (A) (A) (A) (A) (A) (A) (A) (A)
                 (A) (A) (A) (A) (A) (A) (A) (A) (A) (A) (A) (A)
                 (A) (A) (A) (A) (A) (A) (A) (A) (A) (A) (A) (A)
                 (A) (A) (A) (A) (A) (A) (A) (A)
       Virtual   (A) (A) (A) (A) (A) (A) (A) (A) (A) (A) (A) (A)
                 (A) (A) (A) (A) (A) (A) (A) (A) (A) (A) (A) (A)
                 (A) (A) (A) (A) (A) (A) (A)
 The electronic state is 1-A.
 Alpha  occ. eigenvalues --  -20.23532 -11.08515 -11.04793 -11.04391 -11.04169
 Alpha  occ. eigenvalues --  -11.03704 -11.03669 -11.03613 -11.03338 -11.02542
 Alpha  occ. eigenvalues --  -11.01756  -1.27693  -1.08154  -1.03358  -0.96479
 Alpha  occ. eigenvalues --   -0.94518  -0.88578  -0.87908  -0.79563  -0.78081
 Alpha  occ. eigenvalues --   -0.72713  -0.69932  -0.62039  -0.60835  -0.58648
 Alpha  occ. eigenvalues --   -0.57185  -0.56330  -0.54621  -0.54203  -0.51337
 Alpha  occ. eigenvalues --   -0.51046  -0.49554  -0.49460  -0.47447  -0.46677
 Alpha  occ. eigenvalues --   -0.44543  -0.44255  -0.43069  -0.41664  -0.41073
 Alpha  occ. eigenvalues --   -0.39582  -0.38238  -0.36749  -0.32733
 Alpha virt. eigenvalues --    0.53036   0.54508   0.56958   0.60041   0.61774
 Alpha virt. eigenvalues --    0.62098   0.63101   0.65347   0.65569   0.68292
 Alpha virt. eigenvalues --    0.68659   0.69512   0.69858   0.71322   0.72730
 Alpha virt. eigenvalues --    0.73012   0.74189   0.74932   0.76095   0.77179
 Alpha virt. eigenvalues --    0.77469   0.77873   0.78116   0.78535   0.80167
 Alpha virt. eigenvalues --    0.80858   0.81823   0.83434   0.84031   0.84112
 Alpha virt. eigenvalues --    0.84724
          Condensed to atoms (all electrons):
              1          2          3          4          5          6
     1  C    4.743046   0.364778  -0.001484  -0.001650   0.000080  -0.023568
     2  C    0.364778   4.742435  -0.018909  -0.022117  -0.002848   0.363836
     3  C   -0.001484  -0.018909   4.742291  -0.020671   0.357711  -0.004198
     4  C   -0.001650  -0.022117  -0.020671   4.757747   0.360636   0.363329
     5  C    0.000080  -0.002848   0.357711   0.360636   4.770451  -0.019719
     6  C   -0.023568   0.363836  -0.004198   0.363329  -0.019719   4.754183
     7  C   -0.024049   0.361909   0.358825  -0.004279  -0.020582  -0.025410
     8  O    0.000001   0.000274   0.266455   0.000202  -0.016132   0.000002
     9  C    0.000000   0.000002  -0.018853  -0.021171   0.358033   0.000589
    10  C    0.000000   0.000000  -0.001370   0.000573  -0.019297  -0.000003
    11  C    0.000000   0.000000   0.000548  -0.003101  -0.020486   0.000019
    12  H    0.382320  -0.020374   0.000015   0.000008  -0.000002   0.001254
    13  H    0.382408  -0.020285   0.000008   0.000024  -0.000001  -0.002251
    14  H    0.382589  -0.019872  -0.000375  -0.000429   0.000043  -0.001608
    15  H   -0.025113   0.383224   0.001192   0.001268   0.000003  -0.023361
    16  H   -0.000435  -0.000635   0.374238  -0.000631  -0.024562   0.000103
    17  H   -0.000503  -0.001358  -0.001110   0.380961  -0.022663  -0.022855
    18  H    0.000013   0.001304   0.001115   0.384018  -0.020260  -0.023362
    19  H   -0.000002   0.000079  -0.024109  -0.022861   0.377435  -0.001109
    20  H   -0.002818  -0.021634   0.000020  -0.021570   0.001149   0.382683
    21  H    0.001299  -0.022568   0.000037  -0.023449  -0.001461   0.381757
    22  H   -0.002895  -0.021142  -0.021920   0.000017   0.001063   0.001311
    23  H    0.001311  -0.021656  -0.022792   0.000096  -0.001502  -0.001700
    24  H    0.000002   0.000005  -0.040638  -0.000036   0.002379  -0.000001
    25  H   -0.000001   0.000001  -0.001665  -0.002228  -0.023477   0.000005
    26  H    0.000000   0.000000  -0.000017   0.000010  -0.002482   0.000000
    27  H    0.000000   0.000000  -0.000271   0.000000  -0.000769   0.000000
    28  H    0.000000   0.000000   0.000005  -0.000013   0.001046   0.000000
    29  H    0.000000   0.000000   0.000009  -0.000061  -0.002451  -0.000003
    30  H    0.000000   0.000000  -0.000001  -0.001456  -0.000999   0.000011
    31  H    0.000000   0.000000  -0.000011   0.000045   0.001064   0.000000
              7          8          9         10         11         12
     1  C   -0.024049   0.000001   0.000000   0.000000   0.000000   0.382320
     2  C    0.361909   0.000274   0.000002   0.000000   0.000000  -0.020374
     3  C    0.358825   0.266455  -0.018853  -0.001370   0.000548   0.000015
     4  C   -0.004279   0.000202  -0.021171   0.000573  -0.003101   0.000008
     5  C   -0.020582  -0.016132   0.358033  -0.019297  -0.020486  -0.000002
     6  C   -0.025410   0.000002   0.000589  -0.000003   0.000019   0.001254
     7  C    4.783833  -0.022161   0.000525   0.000002  -0.000003  -0.002188
     8  O   -0.022161   7.850022  -0.000159  -0.001760  -0.000002   0.000000
     9  C    0.000525  -0.000159   4.740317   0.364256   0.363869   0.000000
    10  C    0.000002  -0.001760   0.364256   4.740517  -0.027881   0.000000
    11  C   -0.000003  -0.000002   0.363869  -0.027881   4.745830   0.000000
    12  H   -0.002188   0.000000   0.000000   0.000000   0.000000   0.631711
    13  H    0.001266   0.000000   0.000000   0.000000   0.000000  -0.021468
    14  H   -0.001707   0.000000   0.000003   0.000000   0.000000  -0.022117
    15  H   -0.023286  -0.000006   0.000001   0.000000   0.000000  -0.002558
    16  H   -0.026333  -0.018377  -0.002717  -0.000024   0.000010   0.000040
    17  H    0.000085  -0.000001  -0.002918   0.000013  -0.000066  -0.000001
    18  H    0.000016  -0.000003  -0.001300   0.000001  -0.001497   0.000000
    19  H   -0.001128  -0.000786  -0.023125  -0.001711  -0.002078   0.000000
    20  H    0.001307   0.000000  -0.000012   0.000000   0.000000   0.000028
    21  H   -0.001721  -0.000001   0.000000   0.000000   0.000001  -0.000035
    22  H    0.380766  -0.001059  -0.000012   0.000000   0.000000   0.000213
    23  H    0.380477  -0.001151  -0.000001   0.000000   0.000000   0.000024
    24  H   -0.002933   0.257469  -0.000007   0.000064   0.000000   0.000000
    25  H    0.000003   0.000026   0.379781  -0.024885  -0.024479   0.000000
    26  H   -0.000003  -0.000155  -0.020726   0.382524  -0.001160   0.000000
    27  H    0.000005  -0.000329  -0.019695   0.382853   0.001393   0.000000
    28  H    0.000000   0.000037  -0.019724   0.381505  -0.004461   0.000000
    29  H    0.000000   0.000000  -0.020757  -0.001365   0.381716   0.000000
    30  H    0.000000   0.000000  -0.019528   0.001379   0.382632   0.000000
    31  H    0.000000   0.000000  -0.019278  -0.004038   0.382791   0.000000
             13         14         15         16         17         18
     1  C    0.382408   0.382589  -0.025113  -0.000435  -0.000503   0.000013
     2  C   -0.020285  -0.019872   0.383224  -0.000635  -0.001358   0.001304
     3  C    0.000008  -0.000375   0.001192   0.374238  -0.001110   0.001115
     4  C    0.000024  -0.000429   0.001268  -0.000631   0.380961   0.384018
     5  C   -0.000001   0.000043   0.000003  -0.024562  -0.022663  -0.020260
     6  C   -0.002251  -0.001608  -0.023361   0.000103  -0.022855  -0.023362
     7  C    0.001266  -0.001707  -0.023286  -0.026333   0.000085   0.000016
     8  O    0.000000   0.000000  -0.000006  -0.018377  -0.000001  -0.000003
     9  C    0.000000   0.000003   0.000001  -0.002717  -0.002918  -0.001300
    10  C    0.000000   0.000000   0.000000  -0.000024   0.000013   0.000001
    11  C    0.000000   0.000000   0.000000   0.000010  -0.000066  -0.001497
    12  H   -0.021468  -0.022117  -0.002558   0.000040  -0.000001   0.000000
    13  H    0.629612  -0.021906  -0.002398   0.000002   0.000051  -0.000005
    14  H   -0.021906   0.631441   0.001913  -0.000571  -0.000619  -0.000001
    15  H   -0.002398   0.001913   0.649569  -0.000021  -0.000007  -0.000033
    16  H    0.000002  -0.000571  -0.000021   0.663673   0.000189  -0.000015
    17  H    0.000051  -0.000619  -0.000007   0.000189   0.645611  -0.023421
    18  H   -0.000005  -0.000001  -0.000033  -0.000015  -0.023421   0.638241
    19  H    0.000000  -0.000002  -0.000008   0.001822   0.001850  -0.003193
    20  H    0.000228   0.000017  -0.001561  -0.000004  -0.002908  -0.001957
    21  H    0.000026  -0.000003  -0.003387   0.000002   0.001997  -0.003356
    22  H    0.000031   0.000010  -0.001571  -0.002956  -0.000007   0.000002
    23  H   -0.000035  -0.000001  -0.003513   0.001899   0.000003  -0.000012
    24  H    0.000000   0.000000  -0.000001  -0.003787   0.000000   0.000001
    25  H    0.000000   0.000000   0.000000   0.000400   0.000373   0.000042
    26  H    0.000000   0.000000   0.000000   0.000016   0.000000   0.000001
    27  H    0.000000   0.000000   0.000000  -0.000084   0.000001   0.000000
    28  H    0.000000   0.000000   0.000000  -0.000006  -0.000001   0.000000
    29  H    0.000000   0.000000   0.000000   0.000000   0.000017   0.000000
    30  H    0.000000   0.000000   0.000000   0.000001  -0.000003  -0.001475
    31  H    0.000000   0.000000   0.000000  -0.000001  -0.000009   0.000024
             19         20         21         22         23         24
     1  C   -0.000002  -0.002818   0.001299  -0.002895   0.001311   0.000002
     2  C    0.000079  -0.021634  -0.022568  -0.021142  -0.021656   0.000005
     3  C   -0.024109   0.000020   0.000037  -0.021920  -0.022792  -0.040638
     4  C   -0.022861  -0.021570  -0.023449   0.000017   0.000096  -0.000036
     5  C    0.377435   0.001149  -0.001461   0.001063  -0.001502   0.002379
     6  C   -0.001109   0.382683   0.381757   0.001311  -0.001700  -0.000001
     7  C   -0.001128   0.001307  -0.001721   0.380766   0.380477  -0.002933
     8  O   -0.000786   0.000000  -0.000001  -0.001059  -0.001151   0.257469
     9  C   -0.023125  -0.000012   0.000000  -0.000012  -0.000001  -0.000007
    10  C   -0.001711   0.000000   0.000000   0.000000   0.000000   0.000064
    11  C   -0.002078   0.000000   0.000001   0.000000   0.000000   0.000000
    12  H    0.000000   0.000028  -0.000035   0.000213   0.000024   0.000000
    13  H    0.000000   0.000228   0.000026   0.000031  -0.000035   0.000000
    14  H   -0.000002   0.000017  -0.000003   0.000010  -0.000001   0.000000
    15  H   -0.000008  -0.001561  -0.003387  -0.001571  -0.003513  -0.000001
    16  H    0.001822  -0.000004   0.000002  -0.002956   0.001899  -0.003787
    17  H    0.001850  -0.002908   0.001997  -0.000007   0.000003   0.000000
    18  H   -0.003193  -0.001957  -0.003356   0.000002  -0.000012   0.000001
    19  H    0.643481  -0.000004   0.000301  -0.000013   0.000213   0.000032
    20  H   -0.000004   0.639640  -0.023279  -0.000035   0.000015   0.000000
    21  H    0.000301  -0.023279   0.644947   0.000011   0.000156   0.000000
    22  H   -0.000013  -0.000035   0.000011   0.648168  -0.024546   0.000398
    23  H    0.000213   0.000015   0.000156  -0.024546   0.637170  -0.000053
    24  H    0.000032   0.000000   0.000000   0.000398  -0.000053   0.611611
    25  H    0.001741   0.000000  -0.000001   0.000000   0.000000  -0.000004
    26  H    0.000398   0.000000   0.000000   0.000000   0.000000   0.000016
    27  H    0.000002   0.000000   0.000000   0.000000   0.000000   0.000070
    28  H    0.000003   0.000000   0.000000   0.000000   0.000000  -0.000004
    29  H    0.000408   0.000000   0.000000   0.000000   0.000000   0.000000
    30  H    0.000028   0.000001   0.000001   0.000000   0.000000   0.000000
    31  H    0.000003   0.000000   0.000000   0.000000   0.000000   0.000000
             25         26         27         28         29         30
     1  C   -0.000001   0.000000   0.000000   0.000000   0.000000   0.000000
     2  C    0.000001   0.000000   0.000000   0.000000   0.000000   0.000000
     3  C   -0.001665  -0.000017  -0.000271   0.000005   0.000009  -0.000001
     4  C   -0.002228   0.000010   0.000000  -0.000013  -0.000061  -0.001456
     5  C   -0.023477  -0.002482  -0.000769   0.001046  -0.002451  -0.000999
     6  C    0.000005   0.000000   0.000000   0.000000  -0.000003   0.000011
     7  C    0.000003  -0.000003   0.000005   0.000000   0.000000   0.000000
     8  O    0.000026  -0.000155  -0.000329   0.000037   0.000000   0.000000
     9  C    0.379781  -0.020726  -0.019695  -0.019724  -0.020757  -0.019528
    10  C   -0.024885   0.382524   0.382853   0.381505  -0.001365   0.001379
    11  C   -0.024479  -0.001160   0.001393  -0.004461   0.381716   0.382632
    12  H    0.000000   0.000000   0.000000   0.000000   0.000000   0.000000
    13  H    0.000000   0.000000   0.000000   0.000000   0.000000   0.000000
    14  H    0.000000   0.000000   0.000000   0.000000   0.000000   0.000000
    15  H    0.000000   0.000000   0.000000   0.000000   0.000000   0.000000
    16  H    0.000400   0.000016  -0.000084  -0.000006   0.000000   0.000001
    17  H    0.000373   0.000000   0.000001  -0.000001   0.000017  -0.000003
    18  H    0.000042   0.000001   0.000000   0.000000   0.000000  -0.001475
    19  H    0.001741   0.000398   0.000002   0.000003   0.000408   0.000028
    20  H    0.000000   0.000000   0.000000   0.000000   0.000000   0.000001
    21  H   -0.000001   0.000000   0.000000   0.000000   0.000000   0.000001
    22  H    0.000000   0.000000   0.000000   0.000000   0.000000   0.000000
    23  H    0.000000   0.000000   0.000000   0.000000   0.000000   0.000000
    24  H   -0.000004   0.000016   0.000070  -0.000004   0.000000   0.000000
    25  H    0.658004   0.001898  -0.003449  -0.001240   0.001894  -0.003039
    26  H    0.001898   0.623925  -0.020403  -0.021900   0.000236  -0.000008
    27  H   -0.003449  -0.020403   0.622782  -0.023205  -0.000004  -0.000040
    28  H   -0.001240  -0.021900  -0.023205   0.639655   0.000022   0.000076
    29  H    0.001894   0.000236  -0.000004   0.000022   0.631030  -0.021551
    30  H   -0.003039  -0.000008  -0.000040   0.000076  -0.021551   0.634620
    31  H   -0.001480   0.000025   0.000069  -0.000218  -0.021508  -0.022948
             31
     1  C    0.000000
     2  C    0.000000
     3  C   -0.000011
     4  C    0.000045
     5  C    0.001064
     6  C    0.000000
     7  C    0.000000
     8  O    0.000000
     9  C   -0.019278
    10  C   -0.004038
    11  C    0.382791
    12  H    0.000000
    13  H    0.000000
    14  H    0.000000
    15  H    0.000000
    16  H   -0.000001
    17  H   -0.000009
    18  H    0.000024
    19  H    0.000003
    20  H    0.000000
    21  H    0.000000
    22  H    0.000000
    23  H    0.000000
    24  H    0.000000
    25  H   -0.001480
    26  H    0.000025
    27  H    0.000069
    28  H   -0.000218
    29  H   -0.021508
    30  H   -0.022948
    31  H    0.631637
 Mulliken atomic charges:
              1
     1  C   -0.175330
     2  C   -0.024447
     3  C    0.075924
     4  C   -0.103211
     5  C   -0.031398
     6  C   -0.099931
     7  C   -0.113234
     8  O   -0.312404
     9  C   -0.017393
    10  C   -0.171353
    11  C   -0.173595
    12  H    0.053129
    13  H    0.054693
    14  H    0.053197
    15  H    0.049658
    16  H    0.038764
    17  H    0.047298
    18  H    0.055112
    19  H    0.052331
    20  H    0.050695
    21  H    0.048729
    22  H    0.044167
    23  H    0.055599
    24  H    0.175416
    25  H    0.041781
    26  H    0.057804
    27  H    0.061074
    28  H    0.048422
    29  H    0.052369
    30  H    0.052299
    31  H    0.053831
 Sum of Mulliken atomic charges =   0.00000
 Mulliken charges with hydrogens summed into heavy atoms:
              1
     1  C   -0.014311
     2  C    0.025212
     3  C    0.114688
     4  C   -0.000801
     5  C    0.020933
     6  C   -0.000506
     7  C   -0.013467
     8  O   -0.136988
     9  C    0.024389
    10  C   -0.004052
    11  C   -0.015095
 Sum of Mulliken charges with hydrogens summed into heavy atoms =   0.00000
 Electronic spatial extent (au):  <R**2>=           2099.5412
 Charge=              0.0000 electrons
 Dipole moment (field-independent basis, Debye):
    X=             -1.2236    Y=             -0.1247    Z=              0.6607  Tot=              1.3962
 Quadrupole moment (field-independent basis, Debye-Ang):
   XX=            -68.7444   YY=            -66.4224   ZZ=            -67.4733
   XY=             -2.7896   XZ=              0.5827   YZ=              1.9844
 Traceless Quadrupole moment (field-independent basis, Debye-Ang):
   XX=             -1.1977   YY=              1.1243   ZZ=              0.0734
   XY=             -2.7896   XZ=              0.5827   YZ=              1.9844
 Octapole moment (field-independent basis, Debye-Ang**2):
  XXX=              1.4108  YYY=             23.1779  ZZZ=             -3.6951  XYY=             -8.2127
  XXY=              2.6113  XXZ=             -0.7149  XZZ=              2.1190  YZZ=              3.7674
  YYZ=              4.8473  XYZ=              0.8444
 Hexadecapole moment (field-independent basis, Debye-Ang**3):
 XXXX=          -1725.7566 YYYY=           -649.7371 ZZZZ=           -246.7092 XXXY=              3.4968
 XXXZ=              6.3019 YYYX=             -6.4480 YYYZ=              7.0320 ZZZX=              0.6461
 ZZZY=             -3.6614 XXYY=           -410.2181 XXZZ=           -330.3710 YYZZ=           -160.1912
 XXYZ=             -2.2262 YYXZ=              0.0146 ZZXY=              0.5451
 N-N= 6.943183959816D+02 E-N=-2.460743985979D+03  KE= 4.555197433114D+02
 ******************************Gaussian NBO Version 3.1******************************
             N A T U R A L   A T O M I C   O R B I T A L   A N D
          N A T U R A L   B O N D   O R B I T A L   A N A L Y S I S
 ******************************Gaussian NBO Version 3.1******************************
       /RESON  / : Allow strongly delocalized NBO set
       /NLMO   / : Form Natural Localized Molecular Orbitals
       /NMR /    : Analyze NMR Sheilding Tensor 

 Analyzing the SCF density

 Job title: comment                                                         

 Storage needed:     19864 in NPA,     23691 in NBO,     45933 in NLMO (  33549317 available)


 NATURAL POPULATIONS:  Natural atomic orbital occupancies 
                                                          
   NAO  Atom  No  lang   Type(AO)    Occupancy      Energy
 ----------------------------------------------------------
     1    C    1  S      Cor( 1S)     1.99997     -10.96694
     2    C    1  S      Val( 2S)     1.07922      -0.18373
     3    C    1  px     Val( 2p)     1.02609       0.07997
     4    C    1  py     Val( 2p)     1.02942       0.08064
     5    C    1  pz     Val( 2p)     0.99556       0.08725

     6    C    2  S      Cor( 1S)     1.99997     -10.98978
     7    C    2  S      Val( 2S)     1.07659      -0.19042
     8    C    2  px     Val( 2p)     0.98351       0.10208
     9    C    2  py     Val( 2p)     0.96239       0.10617
    10    C    2  pz     Val( 2p)     0.96450       0.10790

    11    C    3  S      Cor( 1S)     1.99989     -11.03464
    12    C    3  S      Val( 2S)     1.08909      -0.21778
    13    C    3  px     Val( 2p)     0.92476       0.09944
    14    C    3  py     Val( 2p)     0.87509       0.10541
    15    C    3  pz     Val( 2p)     0.96697       0.09701

    16    C    4  S      Cor( 1S)     1.99995     -10.97472
    17    C    4  S      Val( 2S)     1.08491      -0.18976
    18    C    4  px     Val( 2p)     0.97752       0.09803
    19    C    4  py     Val( 2p)     0.99209       0.09320
    20    C    4  pz     Val( 2p)     1.01148       0.09448

    21    C    5  S      Cor( 1S)     1.99995     -10.99051
    22    C    5  S      Val( 2S)     1.10426      -0.21233
    23    C    5  px     Val( 2p)     0.95629       0.10509
    24    C    5  py     Val( 2p)     0.95032       0.11018
    25    C    5  pz     Val( 2p)     0.99659       0.09881

    26    C    6  S      Cor( 1S)     1.99996     -10.97434
    27    C    6  S      Val( 2S)     1.08152      -0.18650
    28    C    6  px     Val( 2p)     0.98057       0.09913
    29    C    6  py     Val( 2p)     0.99328       0.09596
    30    C    6  pz     Val( 2p)     1.00802       0.09163

    31    C    7  S      Cor( 1S)     1.99996     -10.97515
    32    C    7  S      Val( 2S)     1.09217      -0.19860
    33    C    7  px     Val( 2p)     0.98630       0.09041
    34    C    7  py     Val( 2p)     0.99132       0.09154
    35    C    7  pz     Val( 2p)     1.02038       0.08255

    36    O    8  S      Cor( 1S)     1.99999     -20.13944
    37    O    8  S      Val( 2S)     1.75003      -0.99750
    38    O    8  px     Val( 2p)     1.65333      -0.24712
    39    O    8  py     Val( 2p)     1.10917      -0.00991
    40    O    8  pz     Val( 2p)     1.82133      -0.31072

    41    C    9  S      Cor( 1S)     1.99996     -10.98663
    42    C    9  S      Val( 2S)     1.08806      -0.19372
    43    C    9  px     Val( 2p)     0.94778       0.11894
    44    C    9  py     Val( 2p)     0.95466       0.11519
    45    C    9  pz     Val( 2p)     0.98445       0.11017

    46    C   10  S      Cor( 1S)     1.99997     -10.95139
    47    C   10  S      Val( 2S)     1.08103      -0.16879
    48    C   10  px     Val( 2p)     1.00758       0.10154
    49    C   10  py     Val( 2p)     1.00786       0.09892
    50    C   10  pz     Val( 2p)     1.03220       0.09769

    51    C   11  S      Cor( 1S)     1.99997     -10.95939
    52    C   11  S      Val( 2S)     1.08205      -0.17839
    53    C   11  px     Val( 2p)     1.01818       0.08875
    54    C   11  py     Val( 2p)     1.00454       0.09236
    55    C   11  pz     Val( 2p)     1.02470       0.09025

    56    H   12  S      Val( 1S)     0.96391       0.07130

    57    H   13  S      Val( 1S)     0.96246       0.07295

    58    H   14  S      Val( 1S)     0.96412       0.07268

    59    H   15  S      Val( 1S)     0.97414       0.06611

    60    H   16  S      Val( 1S)     0.99706       0.04661

    61    H   17  S      Val( 1S)     0.97378       0.06963

    62    H   18  S      Val( 1S)     0.96610       0.07513

    63    H   19  S      Val( 1S)     0.97433       0.07053

    64    H   20  S      Val( 1S)     0.96972       0.07035

    65    H   21  S      Val( 1S)     0.97178       0.06992

    66    H   22  S      Val( 1S)     0.97541       0.06020

    67    H   23  S      Val( 1S)     0.96505       0.07167

    68    H   24  S      Val( 1S)     0.81211       0.07445

    69    H   25  S      Val( 1S)     0.98398       0.06730

    70    H   26  S      Val( 1S)     0.95987       0.09227

    71    H   27  S      Val( 1S)     0.95723       0.09644

    72    H   28  S      Val( 1S)     0.96850       0.08280

    73    H   29  S      Val( 1S)     0.96502       0.07803

    74    H   30  S      Val( 1S)     0.96533       0.08033

    75    H   31  S      Val( 1S)     0.96343       0.07943


 Summary of Natural Population Analysis:                  
                                                          
                                       Natural Population 
                Natural  -----------------------------------------------
    Atom  No    Charge         Core      Valence    Rydberg      Total
 -----------------------------------------------------------------------
      C    1   -0.13025      1.99997     4.13028    0.00000     6.13025
      C    2    0.01304      1.99997     3.98699    0.00000     5.98696
      C    3    0.14420      1.99989     3.85591    0.00000     5.85580
      C    4   -0.06595      1.99995     4.06600    0.00000     6.06595
      C    5   -0.00741      1.99995     4.00746    0.00000     6.00741
      C    6   -0.06335      1.99996     4.06338    0.00000     6.06335
      C    7   -0.09014      1.99996     4.09018    0.00000     6.09014
      O    8   -0.33385      1.99999     6.33386    0.00000     8.33385
      C    9    0.02509      1.99996     3.97495    0.00000     5.97491
      C   10   -0.12864      1.99997     4.12867    0.00000     6.12864
      C   11   -0.12943      1.99997     4.12947    0.00000     6.12943
      H   12    0.03609      0.00000     0.96391    0.00000     0.96391
      H   13    0.03754      0.00000     0.96246    0.00000     0.96246
      H   14    0.03588      0.00000     0.96412    0.00000     0.96412
      H   15    0.02586      0.00000     0.97414    0.00000     0.97414
      H   16    0.00294      0.00000     0.99706    0.00000     0.99706
      H   17    0.02622      0.00000     0.97378    0.00000     0.97378
      H   18    0.03390      0.00000     0.96610    0.00000     0.96610
      H   19    0.02567      0.00000     0.97433    0.00000     0.97433
      H   20    0.03028      0.00000     0.96972    0.00000     0.96972
      H   21    0.02822      0.00000     0.97178    0.00000     0.97178
      H   22    0.02459      0.00000     0.97541    0.00000     0.97541
      H   23    0.03495      0.00000     0.96505    0.00000     0.96505
      H   24    0.18789      0.00000     0.81211    0.00000     0.81211
      H   25    0.01602      0.00000     0.98398    0.00000     0.98398
      H   26    0.04013      0.00000     0.95987    0.00000     0.95987
      H   27    0.04277      0.00000     0.95723    0.00000     0.95723
      H   28    0.03150      0.00000     0.96850    0.00000     0.96850
      H   29    0.03498      0.00000     0.96502    0.00000     0.96502
      H   30    0.03467      0.00000     0.96533    0.00000     0.96533
      H   31    0.03657      0.00000     0.96343    0.00000     0.96343
 =======================================================================
   * Total *    0.00000     21.99954    66.00046    0.00000    88.00000

                                 Natural Population      
 --------------------------------------------------------
   Core                      21.99954 ( 99.9979% of  22)
   Valence                   66.00046 (100.0007% of  66)
   Natural Minimal Basis     88.00000 (100.0000% of  88)
   Natural Rydberg Basis      0.00000 (  0.0000% of  88)
 --------------------------------------------------------

    Atom  No          Natural Electron Configuration
 ----------------------------------------------------------------------------
      C    1      [core]2S( 1.08)2p( 3.05)
      C    2      [core]2S( 1.08)2p( 2.91)
      C    3      [core]2S( 1.09)2p( 2.77)
      C    4      [core]2S( 1.08)2p( 2.98)
      C    5      [core]2S( 1.10)2p( 2.90)
      C    6      [core]2S( 1.08)2p( 2.98)
      C    7      [core]2S( 1.09)2p( 3.00)
      O    8      [core]2S( 1.75)2p( 4.58)
      C    9      [core]2S( 1.09)2p( 2.89)
      C   10      [core]2S( 1.08)2p( 3.05)
      C   11      [core]2S( 1.08)2p( 3.05)
      H   12            1S( 0.96)
      H   13            1S( 0.96)
      H   14            1S( 0.96)
      H   15            1S( 0.97)
      H   16            1S( 1.00)
      H   17            1S( 0.97)
      H   18            1S( 0.97)
      H   19            1S( 0.97)
      H   20            1S( 0.97)
      H   21            1S( 0.97)
      H   22            1S( 0.98)
      H   23            1S( 0.97)
      H   24            1S( 0.81)
      H   25            1S( 0.98)
      H   26            1S( 0.96)
      H   27            1S( 0.96)
      H   28            1S( 0.97)
      H   29            1S( 0.97)
      H   30            1S( 0.97)
      H   31            1S( 0.96)


 NATURAL BOND ORBITAL ANALYSIS:

                       Occupancies       Lewis Structure    Low   High
           Occ.    -------------------  -----------------   occ   occ
  Cycle   Thresh.   Lewis   Non-Lewis     CR  BD  3C  LP    (L)   (NL)   Dev
 =============================================================================
   1(1)    1.90    87.63969   0.36031     11  31   0   2     0      0    0.02
 -----------------------------------------------------------------------------

 Structure accepted: No low occupancy Lewis orbitals

 --------------------------------------------------------
   Core                     21.99954 ( 99.998% of  22)
   Valence Lewis            65.64015 ( 99.455% of  66)
  ==================       ============================
   Total Lewis              87.63969 ( 99.591% of  88)
  -----------------------------------------------------
   Valence non-Lewis         0.36031 (  0.409% of  88)
   Rydberg non-Lewis         0.00000 (  0.000% of  88)
  ==================       ============================
   Total non-Lewis           0.36031 (  0.409% of  88)
 --------------------------------------------------------


       (Occupancy)   Bond orbital/ Coefficients/ Hybrids
 ---------------------------------------------------------------------------------
     1. (1.99022) BD ( 1) C   1 - C   2  
                ( 50.94%)   0.7137* C   1 s( 25.85%)p 2.87( 74.15%)
                                            0.0001  0.5084  0.2475  0.0758 -0.8213
                ( 49.06%)   0.7005* C   2 s( 25.21%)p 2.97( 74.79%)
                                            0.0000  0.5021 -0.2019 -0.0799  0.8371
     2. (1.99482) BD ( 1) C   1 - H  12  
                ( 51.81%)   0.7198* C   1 s( 24.59%)p 3.07( 75.41%)
                                            0.0000  0.4959 -0.4702  0.6932  0.2292
                ( 48.19%)   0.6942* H  12 s(100.00%)
                                            1.0000
     3. (1.99486) BD ( 1) C   1 - H  13  
                ( 51.88%)   0.7203* C   1 s( 24.64%)p 3.06( 75.36%)
                                            0.0000  0.4964 -0.4834 -0.7147  0.0957
                ( 48.12%)   0.6937* H  13 s(100.00%)
                                            1.0000
     4. (1.99510) BD ( 1) C   1 - H  14  
                ( 51.85%)   0.7201* C   1 s( 24.92%)p 3.01( 75.08%)
                                            0.0000  0.4992  0.6957 -0.0551  0.5136
                ( 48.15%)   0.6939* H  14 s(100.00%)
                                            1.0000
     5. (1.98535) BD ( 1) C   2 - C   6  
                ( 49.76%)   0.7054* C   2 s( 25.16%)p 2.97( 74.84%)
                                            0.0000  0.5016  0.4479 -0.6933 -0.2591
                ( 50.24%)   0.7088* C   6 s( 25.39%)p 2.94( 74.61%)
                                            0.0001  0.5039 -0.4261  0.6892  0.2992
     6. (1.98422) BD ( 1) C   2 - C   7  
                ( 49.37%)   0.7027* C   2 s( 25.08%)p 2.99( 74.92%)
                                            0.0000  0.5008  0.4757  0.7135 -0.1175
                ( 50.63%)   0.7115* C   7 s( 25.75%)p 2.88( 74.25%)
                                            0.0001  0.5074 -0.4510 -0.7169  0.1584
     7. (1.98426) BD ( 1) C   2 - H  15  
                ( 51.18%)   0.7154* C   2 s( 24.55%)p 3.07( 75.45%)
                                            0.0000  0.4955 -0.7296  0.0618 -0.4672
                ( 48.82%)   0.6987* H  15 s(100.00%)
                                            1.0000
     8. (1.98181) BD ( 1) C   3 - C   5  
                ( 50.74%)   0.7123* C   3 s( 26.70%)p 2.74( 73.30%)
                                            0.0000  0.5167  0.4455 -0.6838 -0.2587
                ( 49.26%)   0.7019* C   5 s( 25.10%)p 2.98( 74.90%)
                                            0.0001  0.5010 -0.4329  0.7001  0.2673
     9. (1.98783) BD ( 1) C   3 - C   7  
                ( 49.29%)   0.7021* C   3 s( 25.72%)p 2.89( 74.28%)
                                            0.0000  0.5071 -0.7933 -0.0061 -0.3369
                ( 50.71%)   0.7121* C   7 s( 25.35%)p 2.94( 74.65%)
                                            0.0000  0.5035  0.7879 -0.0622  0.3490
    10. (1.98791) BD ( 1) C   3 - O   8  
                ( 41.04%)   0.6407* C   3 s( 22.09%)p 3.53( 77.91%)
                                           -0.0001  0.4700  0.4128  0.7291 -0.2777
                ( 58.96%)   0.7678* O   8 s( 16.38%)p 5.11( 83.62%)
                                            0.0000  0.4047 -0.4638 -0.7190  0.3228
    11. (1.98902) BD ( 1) C   3 - H  16  
                ( 50.46%)   0.7104* C   3 s( 25.49%)p 2.92( 74.51%)
                                            0.0000  0.5049 -0.0434  0.0273  0.8617
                ( 49.54%)   0.7038* H  16 s(100.00%)
                                            1.0000
    12. (1.98282) BD ( 1) C   4 - C   5  
                ( 50.42%)   0.7101* C   4 s( 25.43%)p 2.93( 74.57%)
                                            0.0001  0.5043  0.4595  0.7221 -0.1142
                ( 49.58%)   0.7041* C   5 s( 25.18%)p 2.97( 74.82%)
                                            0.0000  0.5018 -0.4831 -0.7062  0.1268
    13. (1.98980) BD ( 1) C   4 - C   6  
                ( 49.96%)   0.7068* C   4 s( 25.29%)p 2.95( 74.71%)
                                            0.0000  0.5029 -0.7889  0.0972 -0.3394
                ( 50.04%)   0.7074* C   6 s( 25.34%)p 2.95( 74.66%)
                                            0.0000  0.5034  0.7858 -0.0375  0.3574
    14. (1.99050) BD ( 1) C   4 - H  17  
                ( 51.35%)   0.7166* C   4 s( 24.62%)p 3.06( 75.38%)
                                            0.0000  0.4962 -0.0697 -0.1679  0.8490
                ( 48.65%)   0.6975* H  17 s(100.00%)
                                            1.0000
    15. (1.98870) BD ( 1) C   4 - H  18  
                ( 51.64%)   0.7186* C   4 s( 24.66%)p 3.05( 75.34%)
                                            0.0000  0.4966  0.4019 -0.6640 -0.3886
                ( 48.36%)   0.6954* H  18 s(100.00%)
                                            1.0000
    16. (1.97836) BD ( 1) C   5 - C   9  
                ( 50.20%)   0.7085* C   5 s( 25.09%)p 2.99( 74.91%)
                                            0.0000  0.5009  0.7397 -0.0704  0.4437
                ( 49.80%)   0.7057* C   9 s( 25.38%)p 2.94( 74.62%)
                                            0.0001  0.5038 -0.7390  0.0982 -0.4364
    17. (1.98475) BD ( 1) C   5 - H  19  
                ( 51.22%)   0.7157* C   5 s( 24.63%)p 3.06( 75.37%)
                                            0.0000  0.4962  0.1788  0.0784 -0.8459
                ( 48.78%)   0.6984* H  19 s(100.00%)
                                            1.0000
    18. (1.98953) BD ( 1) C   6 - H  20  
                ( 51.49%)   0.7175* C   6 s( 24.92%)p 3.01( 75.08%)
                                            0.0000  0.4992 -0.4412 -0.7208  0.1913
                ( 48.51%)   0.6965* H  20 s(100.00%)
                                            1.0000
    19. (1.99026) BD ( 1) C   6 - H  21  
                ( 51.40%)   0.7170* C   6 s( 24.34%)p 3.11( 75.66%)
                                            0.0000  0.4934  0.0798  0.0636 -0.8638
                ( 48.60%)   0.6971* H  21 s(100.00%)
                                            1.0000
    20. (1.98870) BD ( 1) C   7 - H  22  
                ( 51.20%)   0.7156* C   7 s( 24.65%)p 3.06( 75.35%)
                                            0.0000  0.4965 -0.4124  0.6854  0.3372
                ( 48.80%)   0.6985* H  22 s(100.00%)
                                            1.0000
    21. (1.98929) BD ( 1) C   7 - H  23  
                ( 51.73%)   0.7192* C   7 s( 24.25%)p 3.12( 75.75%)
                                            0.0000  0.4925  0.0750  0.1114 -0.8599
                ( 48.27%)   0.6948* H  23 s(100.00%)
                                            1.0000
    22. (1.98918) BD ( 1) O   8 - H  24  
                ( 59.40%)   0.7707* O   8 s( 16.75%)p 4.97( 83.25%)
                                            0.0000 -0.4093  0.4858 -0.6950 -0.3369
                ( 40.60%)   0.6372* H  24 s(100.00%)
                                           -1.0000
    23. (1.98948) BD ( 1) C   9 - C  10  
                ( 49.39%)   0.7028* C   9 s( 25.33%)p 2.95( 74.67%)
                                            0.0000  0.5033  0.4974  0.6990 -0.1039
                ( 50.61%)   0.7114* C  10 s( 25.76%)p 2.88( 74.24%)
                                            0.0001  0.5075 -0.5253 -0.6796  0.0686
    24. (1.98918) BD ( 1) C   9 - C  11  
                ( 48.90%)   0.6993* C   9 s( 24.88%)p 3.02( 75.12%)
                                            0.0000  0.4988  0.4190 -0.7006 -0.2913
                ( 51.10%)   0.7148* C  11 s( 25.82%)p 2.87( 74.18%)
                                            0.0001  0.5081 -0.4458  0.6901  0.2585
    25. (1.98551) BD ( 1) C   9 - H  25  
                ( 50.74%)   0.7123* C   9 s( 24.41%)p 3.10( 75.59%)
                                            0.0000  0.4941 -0.1761 -0.1048  0.8449
                ( 49.26%)   0.7019* H  25 s(100.00%)
                                            1.0000
    26. (1.99559) BD ( 1) C  10 - H  26  
                ( 52.05%)   0.7214* C  10 s( 25.03%)p 2.99( 74.97%)
                                            0.0000  0.5003  0.0923  0.2183 -0.8328
                ( 47.95%)   0.6925* H  26 s(100.00%)
                                            1.0000
    27. (1.99541) BD ( 1) C  10 - H  27  
                ( 52.18%)   0.7224* C  10 s( 24.75%)p 3.04( 75.25%)
                                            0.0000  0.4975 -0.3309  0.6716  0.4382
                ( 47.82%)   0.6915* H  27 s(100.00%)
                                            1.0000
    28. (1.99413) BD ( 1) C  10 - H  28  
                ( 51.58%)   0.7182* C  10 s( 24.46%)p 3.09( 75.54%)
                                            0.0000  0.4946  0.7785 -0.1989  0.3313
                ( 48.42%)   0.6959* H  28 s(100.00%)
                                            1.0000
    29. (1.99559) BD ( 1) C  11 - H  29  
                ( 51.79%)   0.7197* C  11 s( 24.86%)p 3.02( 75.14%)
                                            0.0000  0.4986  0.1071  0.0241 -0.8598
                ( 48.21%)   0.6943* H  29 s(100.00%)
                                            1.0000
    30. (1.99496) BD ( 1) C  11 - H  30  
                ( 51.77%)   0.7195* C  11 s( 24.63%)p 3.06( 75.37%)
                                            0.0000  0.4963 -0.4299 -0.7233  0.2140
                ( 48.23%)   0.6945* H  30 s(100.00%)
                                            1.0000
    31. (1.99429) BD ( 1) C  11 - H  31  
                ( 51.83%)   0.7199* C  11 s( 24.68%)p 3.05( 75.32%)
                                            0.0000  0.4968  0.7778 -0.0075  0.3848
                ( 48.17%)   0.6941* H  31 s(100.00%)
                                            1.0000
    32. (1.99997) CR ( 1) C   1           s(100.00%)
                                            1.0000  0.0000  0.0000  0.0000  0.0001
    33. (1.99997) CR ( 1) C   2           s(100.00%)
                                            1.0000  0.0000  0.0000  0.0000  0.0000
    34. (1.99989) CR ( 1) C   3           s(100.00%)
                                            1.0000  0.0000  0.0000  0.0001  0.0000
    35. (1.99995) CR ( 1) C   4           s(100.00%)
                                            1.0000 -0.0001  0.0000 -0.0001  0.0000
    36. (1.99995) CR ( 1) C   5           s(100.00%)
                                            1.0000 -0.0001  0.0000  0.0000  0.0000
    37. (1.99996) CR ( 1) C   6           s(100.00%)
                                            1.0000  0.0000  0.0000 -0.0001 -0.0001
    38. (1.99996) CR ( 1) C   7           s(100.00%)
                                            1.0000  0.0000  0.0000  0.0001  0.0000
    39. (1.99999) CR ( 1) O   8           s(100.00%)
                                            1.0000  0.0000  0.0000  0.0000  0.0000
    40. (1.99996) CR ( 1) C   9           s(100.00%)
                                            1.0000  0.0000  0.0001  0.0000  0.0000
    41. (1.99997) CR ( 1) C  10           s(100.00%)
                                            1.0000  0.0000  0.0001  0.0001  0.0000
    42. (1.99997) CR ( 1) C  11           s(100.00%)
                                            1.0000  0.0000  0.0001 -0.0001  0.0000
    43. (1.99289) LP ( 1) O   8           s( 66.71%)p 0.50( 33.29%)
                                            0.0000  0.8168  0.4443  0.0079 -0.3680
    44. (1.97585) LP ( 2) O   8           s(  0.16%)p99.99( 99.84%)
                                            0.0000  0.0398  0.5929  0.0011  0.8043
    45. (0.01142) BD*( 1) C   1 - C   2  
                ( 49.06%)   0.7005* C   1 s( 25.85%)p 2.87( 74.15%)
                                           -0.0001 -0.5084 -0.2475 -0.0758  0.8213
                ( 50.94%)  -0.7137* C   2 s( 25.21%)p 2.97( 74.79%)
                                            0.0000 -0.5021  0.2019  0.0799 -0.8371
    46. (0.00490) BD*( 1) C   1 - H  12  
                ( 48.19%)   0.6942* C   1 s( 24.59%)p 3.07( 75.41%)
                                            0.0000 -0.4959  0.4702 -0.6932 -0.2292
                ( 51.81%)  -0.7198* H  12 s(100.00%)
                                           -1.0000
    47. (0.00495) BD*( 1) C   1 - H  13  
                ( 48.12%)   0.6937* C   1 s( 24.64%)p 3.06( 75.36%)
                                            0.0000 -0.4964  0.4834  0.7147 -0.0957
                ( 51.88%)  -0.7203* H  13 s(100.00%)
                                           -1.0000
    48. (0.00678) BD*( 1) C   1 - H  14  
                ( 48.15%)   0.6939* C   1 s( 24.92%)p 3.01( 75.08%)
                                            0.0000 -0.4992 -0.6957  0.0551 -0.5136
                ( 51.85%)  -0.7201* H  14 s(100.00%)
                                           -1.0000
    49. (0.01637) BD*( 1) C   2 - C   6  
                ( 50.24%)   0.7088* C   2 s( 25.16%)p 2.97( 74.84%)
                                            0.0000  0.5016  0.4479 -0.6933 -0.2591
                ( 49.76%)  -0.7054* C   6 s( 25.39%)p 2.94( 74.61%)
                                            0.0001  0.5039 -0.4261  0.6892  0.2992
    50. (0.01593) BD*( 1) C   2 - C   7  
                ( 50.63%)   0.7115* C   2 s( 25.08%)p 2.99( 74.92%)
                                            0.0000  0.5008  0.4757  0.7135 -0.1175
                ( 49.37%)  -0.7027* C   7 s( 25.75%)p 2.88( 74.25%)
                                            0.0001  0.5074 -0.4510 -0.7169  0.1584
    51. (0.01068) BD*( 1) C   2 - H  15  
                ( 48.82%)   0.6987* C   2 s( 24.55%)p 3.07( 75.45%)
                                            0.0000 -0.4955  0.7296 -0.0618  0.4672
                ( 51.18%)  -0.7154* H  15 s(100.00%)
                                           -1.0000
    52. (0.02727) BD*( 1) C   3 - C   5  
                ( 49.26%)   0.7019* C   3 s( 26.70%)p 2.74( 73.30%)
                                            0.0000 -0.5167 -0.4455  0.6838  0.2587
                ( 50.74%)  -0.7123* C   5 s( 25.10%)p 2.98( 74.90%)
                                           -0.0001 -0.5010  0.4329 -0.7001 -0.2673
    53. (0.02689) BD*( 1) C   3 - C   7  
                ( 50.71%)   0.7121* C   3 s( 25.72%)p 2.89( 74.28%)
                                            0.0000  0.5071 -0.7933 -0.0061 -0.3369
                ( 49.29%)  -0.7021* C   7 s( 25.35%)p 2.94( 74.65%)
                                            0.0000  0.5035  0.7879 -0.0622  0.3490
    54. (0.02096) BD*( 1) C   3 - O   8  
                ( 58.96%)   0.7678* C   3 s( 22.09%)p 3.53( 77.91%)
                                           -0.0001  0.4700  0.4128  0.7291 -0.2777
                ( 41.04%)  -0.6407* O   8 s( 16.38%)p 5.11( 83.62%)
                                            0.0000  0.4047 -0.4638 -0.7190  0.3228
    55. (0.02324) BD*( 1) C   3 - H  16  
                ( 49.54%)   0.7038* C   3 s( 25.49%)p 2.92( 74.51%)
                                            0.0000 -0.5049  0.0434 -0.0273 -0.8617
                ( 50.46%)  -0.7104* H  16 s(100.00%)
                                           -1.0000
    56. (0.01541) BD*( 1) C   4 - C   5  
                ( 49.58%)   0.7041* C   4 s( 25.43%)p 2.93( 74.57%)
                                           -0.0001 -0.5043 -0.4595 -0.7221  0.1142
                ( 50.42%)  -0.7101* C   5 s( 25.18%)p 2.97( 74.82%)
                                            0.0000 -0.5018  0.4831  0.7062 -0.1268
    57. (0.01220) BD*( 1) C   4 - C   6  
                ( 50.04%)   0.7074* C   4 s( 25.29%)p 2.95( 74.71%)
                                            0.0000  0.5029 -0.7889  0.0972 -0.3394
                ( 49.96%)  -0.7068* C   6 s( 25.34%)p 2.95( 74.66%)
                                            0.0000  0.5034  0.7858 -0.0375  0.3574
    58. (0.01049) BD*( 1) C   4 - H  17  
                ( 48.65%)   0.6975* C   4 s( 24.62%)p 3.06( 75.38%)
                                            0.0000 -0.4962  0.0697  0.1679 -0.8490
                ( 51.35%)  -0.7166* H  17 s(100.00%)
                                           -1.0000
    59. (0.00859) BD*( 1) C   4 - H  18  
                ( 48.36%)   0.6954* C   4 s( 24.66%)p 3.05( 75.34%)
                                            0.0000 -0.4966 -0.4019  0.6640  0.3886
                ( 51.64%)  -0.7186* H  18 s(100.00%)
                                           -1.0000
    60. (0.02184) BD*( 1) C   5 - C   9  
                ( 49.80%)   0.7057* C   5 s( 25.09%)p 2.99( 74.91%)
                                            0.0000 -0.5009 -0.7397  0.0704 -0.4437
                ( 50.20%)  -0.7085* C   9 s( 25.38%)p 2.94( 74.62%)
                                           -0.0001 -0.5038  0.7390 -0.0982  0.4364
    61. (0.01217) BD*( 1) C   5 - H  19  
                ( 48.78%)   0.6984* C   5 s( 24.63%)p 3.06( 75.37%)
                                            0.0000 -0.4962 -0.1788 -0.0784  0.8459
                ( 51.22%)  -0.7157* H  19 s(100.00%)
                                           -1.0000
    62. (0.00881) BD*( 1) C   6 - H  20  
                ( 48.51%)   0.6965* C   6 s( 24.92%)p 3.01( 75.08%)
                                            0.0000 -0.4992  0.4412  0.7208 -0.1913
                ( 51.49%)  -0.7175* H  20 s(100.00%)
                                           -1.0000
    63. (0.00893) BD*( 1) C   6 - H  21  
                ( 48.60%)   0.6971* C   6 s( 24.34%)p 3.11( 75.66%)
                                            0.0000 -0.4934 -0.0798 -0.0636  0.8638
                ( 51.40%)  -0.7170* H  21 s(100.00%)
                                           -1.0000
    64. (0.00976) BD*( 1) C   7 - H  22  
                ( 48.80%)   0.6985* C   7 s( 24.65%)p 3.06( 75.35%)
                                            0.0000 -0.4965  0.4124 -0.6854 -0.3372
                ( 51.20%)  -0.7156* H  22 s(100.00%)
                                           -1.0000
    65. (0.00919) BD*( 1) C   7 - H  23  
                ( 48.27%)   0.6948* C   7 s( 24.25%)p 3.12( 75.75%)
                                            0.0000 -0.4925 -0.0750 -0.1114  0.8599
                ( 51.73%)  -0.7192* H  23 s(100.00%)
                                           -1.0000
    66. (0.00745) BD*( 1) O   8 - H  24  
                ( 40.60%)   0.6372* O   8 s( 16.75%)p 4.97( 83.25%)
                                            0.0000  0.4093 -0.4858  0.6950  0.3369
                ( 59.40%)  -0.7707* H  24 s(100.00%)
                                            1.0000
    67. (0.01009) BD*( 1) C   9 - C  10  
                ( 50.61%)   0.7114* C   9 s( 25.33%)p 2.95( 74.67%)
                                            0.0000  0.5033  0.4974  0.6990 -0.1039
                ( 49.39%)  -0.7028* C  10 s( 25.76%)p 2.88( 74.24%)
                                            0.0001  0.5075 -0.5253 -0.6796  0.0686
    68. (0.01019) BD*( 1) C   9 - C  11  
                ( 51.10%)   0.7148* C   9 s( 24.88%)p 3.02( 75.12%)
                                            0.0000  0.4988  0.4190 -0.7006 -0.2913
                ( 48.90%)  -0.6993* C  11 s( 25.82%)p 2.87( 74.18%)
                                            0.0001  0.5081 -0.4458  0.6901  0.2585
    69. (0.01157) BD*( 1) C   9 - H  25  
                ( 49.26%)   0.7019* C   9 s( 24.41%)p 3.10( 75.59%)
                                            0.0000 -0.4941  0.1761  0.1048 -0.8449
                ( 50.74%)  -0.7123* H  25 s(100.00%)
                                           -1.0000
    70. (0.00557) BD*( 1) C  10 - H  26  
                ( 47.95%)   0.6925* C  10 s( 25.03%)p 2.99( 74.97%)
                                            0.0000 -0.5003 -0.0923 -0.2183  0.8328
                ( 52.05%)  -0.7214* H  26 s(100.00%)
                                           -1.0000
    71. (0.00598) BD*( 1) C  10 - H  27  
                ( 47.82%)   0.6915* C  10 s( 24.75%)p 3.04( 75.25%)
                                            0.0000 -0.4975  0.3309 -0.6716 -0.4382
                ( 52.18%)  -0.7224* H  27 s(100.00%)
                                           -1.0000
    72. (0.00567) BD*( 1) C  10 - H  28  
                ( 48.42%)   0.6959* C  10 s( 24.46%)p 3.09( 75.54%)
                                            0.0000 -0.4946 -0.7785  0.1989 -0.3313
[...]
 Sum      213.2031      -22.4287     235.6318       -27.3191     240.5223

 Contributions to Isotropic shielding for atom    8 (   353.5592 ppm):
                         Standard Origin              Atomic Origin
 NLMO      Total    Paramagnetic  Diamagnetic   Paramagnetic  Diamagnetic
    6      -1.1881       -1.4594       0.2713        -1.1485      -0.0396
    9      -0.5495       -0.1305      -0.4189        -1.5201       0.9706
   10      27.8090        9.7967      18.0123        17.2402      10.5688
   11       0.0997       -0.3646       0.4643        -1.1539       1.2537
   17      -0.0504       -0.3409       0.2905        -1.0048       0.9544
   20      -0.2276       -0.6734       0.4458        -1.1421       0.9144
   21      -0.2405       -0.8456       0.6051        -1.2748       1.0344
   22      18.3861        9.6650       8.7211         3.9774      14.4087
   27      -0.3213       -1.1782       0.8569        -1.0949       0.7736
   39     271.1719       -0.0058     271.1777        -0.0040     271.1759
   43      33.9000       -1.3695      35.2695        -3.5725      37.4725
   44       3.1788      -35.7567      38.9354       -36.8024      39.9812
 Sum      351.9681      -22.6631     374.6311       -27.5004     379.4685

 Contributions to Isotropic shielding for atom    9 (   210.9858 ppm):
                         Standard Origin              Atomic Origin
 NLMO      Total    Paramagnetic  Diamagnetic   Paramagnetic  Diamagnetic
   10       0.0991       -0.3163       0.4154        -1.1297       1.2288
   16       4.8491      -10.0518      14.9009        -2.8878       7.7369
   17       0.3706       -0.1244       0.4950        -0.6567       1.0273
   23      -1.9294       -5.9111       3.9817        -9.6542       7.7249
   24      -2.2168       -4.9837       2.7669        -9.6843       7.4675
   25       5.6481       -4.5906      10.2387        -5.1624      10.8105
   26       0.8842       -0.4799       1.3641        -0.2039       1.0881
   27       0.6420       -0.6303       1.2723        -0.3852       1.0272
   29       0.9615       -0.4510       1.4125        -0.1103       1.0718
   30       0.7337       -0.5312       1.2649        -0.2394       0.9731
   40     199.9168       -0.0010     199.9178         0.0013     199.9156
 Sum      209.9591      -28.0712     238.0303       -30.1126     240.0717

 Contributions to Isotropic shielding for atom   10 (   220.5887 ppm):
                         Standard Origin              Atomic Origin
 NLMO      Total    Paramagnetic  Diamagnetic   Paramagnetic  Diamagnetic
   10       0.1127       -0.2924       0.4052        -1.1132       1.2259
   23       4.5460      -10.4724      15.0184        -3.2452       7.7912
   24      -0.5233        0.2013      -0.7246        -1.2760       0.7527
   25       0.2812       -0.1733       0.4545        -0.7546       1.0358
   26       5.9967       -3.9102       9.9069        -5.2363      11.2330
   27       6.1834       -5.0235      11.2069        -5.0539      11.2373
   28       4.2493        2.0407       2.2086        -6.7536      11.0029
   31      -0.3038       -1.0013       0.6974        -1.2751       0.9712
   41     200.0738       -0.0036     200.0775         0.0023     200.0716
 Sum      220.6159      -18.6348     239.2507       -24.7057     245.3215

 Contributions to Isotropic shielding for atom   11 (   220.7391 ppm):
                         Standard Origin              Atomic Origin
 NLMO      Total    Paramagnetic  Diamagnetic   Paramagnetic  Diamagnetic
   23      -0.5297        0.2264      -0.7561        -1.2999       0.7702
   24       4.7487      -11.3916      16.1404        -3.2979       8.0467
   25       0.2831       -0.1008       0.3839        -0.7331       1.0162
   28      -0.3318       -0.9503       0.6185        -1.3120       0.9802
   29       5.9344       -3.5188       9.4532        -5.1950      11.1294
   30       5.9289       -4.2708      10.1998        -5.1487      11.0777
   31       4.3404        1.9056       2.4348        -6.7734      11.1138
   42     200.0741       -0.0039     200.0780         0.0023     200.0718
 Sum      220.4482      -18.1043     238.5525       -23.7578     244.2061

 Contributions to Isotropic shielding for atom   12 (    32.6879 ppm):
                         Standard Origin              Atomic Origin
 NLMO      Total    Paramagnetic  Diamagnetic   Paramagnetic  Diamagnetic
    1       1.3132        0.3672       0.9460         0.2769       1.0364
    2      26.3488        0.1028      26.2459         0.4106      25.9381
    3       1.9406        2.4325      -0.4919         0.0983       1.8423
    4       2.1027        0.5768       1.5259         0.2460       1.8567
 Sum       31.7053        3.4794      28.2259         1.0317      30.6736

 Contributions to Isotropic shielding for atom   13 (    32.6369 ppm):
                         Standard Origin              Atomic Origin
 NLMO      Total    Paramagnetic  Diamagnetic   Paramagnetic  Diamagnetic
    1       1.2558        0.5142       0.7416         0.2178       1.0379
    2       1.9501        2.3990      -0.4489         0.1141       1.8360
    3      26.3252        0.0869      26.2383         0.4273      25.8979
    4       2.0950        0.6964       1.3987         0.2432       1.8518
 Sum       31.6261        3.6965      27.9297         1.0024      30.6237

 Contributions to Isotropic shielding for atom   14 (    32.7201 ppm):
                         Standard Origin              Atomic Origin
 NLMO      Total    Paramagnetic  Diamagnetic   Paramagnetic  Diamagnetic
    1       1.6280       -1.3092       2.9373         0.7358       0.8922
    2       1.9974        0.9224       1.0750         0.1564       1.8409
    3       1.9864        1.0926       0.8938         0.1449       1.8415
    4      26.2925        0.3826      25.9099         0.3574      25.9351
 Sum       31.9043        1.0884      30.8159         1.3945      30.5098

 Contributions to Isotropic shielding for atom   15 (    32.4470 ppm):
                         Standard Origin              Atomic Origin
 NLMO      Total    Paramagnetic  Diamagnetic   Paramagnetic  Diamagnetic
    1       0.7869        2.2734      -1.4866        -0.2221       1.0089
    5       1.2079        1.2886      -0.0807         0.2506       0.9574
    6       1.2847        1.0846       0.2001         0.3669       0.9177
    7      26.5333       -0.2910      26.8243         0.5048      26.0285
   19       0.1655        0.0749       0.0906        -0.8546       1.0201
   21       0.1427        0.1758      -0.0331        -0.8942       1.0369
 Sum       30.1210        4.6063      25.5147        -0.8486      30.9696

 Contributions to Isotropic shielding for atom   16 (    32.1983 ppm):
                         Standard Origin              Atomic Origin
 NLMO      Total    Paramagnetic  Diamagnetic   Paramagnetic  Diamagnetic
    8       1.0889       -0.1811       1.2700        -0.0531       1.1420
   10       0.6912        0.8929      -0.2018        -0.8434       1.5346
   11      26.7398        0.4170      26.3227         0.6873      26.0525
   22       0.3197       -0.8493       1.1691        -0.6531       0.9728
 Sum       28.8396        0.2796      28.5600        -0.8623      29.7019

 Contributions to Isotropic shielding for atom   17 (    32.8745 ppm):
                         Standard Origin              Atomic Origin
 NLMO      Total    Paramagnetic  Diamagnetic   Paramagnetic  Diamagnetic
   12       1.4193        0.0369       1.3824         0.4708       0.9485
   13       1.0699        0.9823       0.0875         0.1340       0.9359
   14      26.4626        0.1733      26.2893         0.4154      26.0472
   15       2.0775        1.5146       0.5628         0.3464       1.7311
   16      -0.0612       -0.0864       0.0252        -1.0281       0.9669
   30      -0.1817       -1.0496       0.8679        -0.7847       0.6030
 Sum       30.7864        1.5711      29.2152        -0.4462      31.2325

 Contributions to Isotropic shielding for atom   18 (    32.3004 ppm):
                         Standard Origin              Atomic Origin
 NLMO      Total    Paramagnetic  Diamagnetic   Paramagnetic  Diamagnetic
   12       1.3205        0.4182       0.9024         0.3389       0.9817
   13       0.9603        1.4175      -0.4572        -0.1595       1.1198
   14       2.0940        1.2561       0.8379         0.3395       1.7545
   15      26.3440       -0.0315      26.3756         0.4306      25.9135
   19       0.1967       -0.4496       0.6463        -0.8377       1.0343
   24       0.0330       -0.6861       0.7190        -1.0156       1.0485
   30      -0.3693       -1.6106       1.2413        -1.0358       0.6665
 Sum       30.5792        0.3140      30.2653        -1.9396      32.5189

 Contributions to Isotropic shielding for atom   19 (    32.4978 ppm):
                         Standard Origin              Atomic Origin
 NLMO      Total    Paramagnetic  Diamagnetic   Paramagnetic  Diamagnetic
    8       1.2095        0.7565       0.4530         0.2758       0.9336
   10       0.1568       -0.5542       0.7110        -1.4314       1.5882
   12       1.1549        0.8073       0.3475         0.1739       0.9809
   16       1.0414        1.2922      -0.2508        -0.0157       1.0571
   17      26.3138        0.1071      26.2067         0.4324      25.8814
   26      -0.0836       -1.1924       1.1088        -0.9613       0.8778
   29      -0.0762       -1.3218       1.2456        -0.9617       0.8855
 Sum       29.7165       -0.1052      29.8217        -2.4880      32.2045

 Contributions to Isotropic shielding for atom   20 (    32.5050 ppm):
                         Standard Origin              Atomic Origin
 NLMO      Total    Paramagnetic  Diamagnetic   Paramagnetic  Diamagnetic
    1      -0.0818       -0.0330      -0.0488        -1.0192       0.9374
    3      -0.0978       -1.0480       0.9502        -0.9893       0.8916
    5       0.9898        1.3270      -0.3372         0.1006       0.8892
   13       1.2636        0.6125       0.6511         0.2665       0.9971
   14       0.1673        0.1995      -0.0322        -0.8371       1.0044
   18      26.4539       -0.0095      26.4634         0.4885      25.9654
   19       2.0488        1.7672       0.2816         0.3112       1.7376
 Sum       30.7437        2.8157      27.9281        -1.6789      32.4226

 Contributions to Isotropic shielding for atom   21 (    32.4961 ppm):
                         Standard Origin              Atomic Origin
 NLMO      Total    Paramagnetic  Diamagnetic   Paramagnetic  Diamagnetic
    5       1.2256        0.7001       0.5255         0.2884       0.9372
   13       1.4027       -0.0362       1.4388         0.4295       0.9732
   18       1.9361        2.0046      -0.0685         0.1662       1.7699
   19      26.4567        0.1373      26.3194         0.4295      26.0272
 Sum       31.0211        2.8059      28.2152         1.3135      29.7076

 Contributions to Isotropic shielding for atom   22 (    32.7895 ppm):
                         Standard Origin              Atomic Origin
 NLMO      Total    Paramagnetic  Diamagnetic   Paramagnetic  Diamagnetic
    2      -0.0971       -1.1005       1.0034        -0.9887       0.8916
    6       0.9550        1.3206      -0.3656         0.0400       0.9150
    9       1.3309        0.4868       0.8441         0.4241       0.9068
   10      -0.2062        0.4218      -0.6280        -1.3670       1.1609
   20      26.5649        0.0269      26.5380         0.4607      26.1042
   21       2.0285        1.6660       0.3625         0.1970       1.8315
 Sum       30.5761        2.8216      27.7545        -1.2339      31.8099

 Contributions to Isotropic shielding for atom   23 (    32.2011 ppm):
                         Standard Origin              Atomic Origin
 NLMO      Total    Paramagnetic  Diamagnetic   Paramagnetic  Diamagnetic
    6       1.0742        0.7839       0.2903         0.1025       0.9716
    9       1.4245        0.0261       1.3984         0.5128       0.9117
   10      -0.1018        0.0006      -0.1024        -1.5136       1.4119
   20       1.9141        1.7647       0.1494         0.0913       1.8228
   21      26.2700        0.1401      26.1299         0.4384      25.8316
 Sum       30.5810        2.7154      27.8656        -0.3686      30.9496

 Contributions to Isotropic shielding for atom   24 (    35.0134 ppm):
                         Standard Origin              Atomic Origin
 NLMO      Total    Paramagnetic  Diamagnetic   Paramagnetic  Diamagnetic
    9      -0.1891        0.3944      -0.5835        -1.2821       1.0930
   10       1.3971        2.2039      -0.8068         0.6982       0.6989
   11       0.1426        0.2298      -0.0872        -0.8859       1.0285
   20      -0.0527       -0.5786       0.5259        -1.0101       0.9574
   22      23.1315       -0.4974      23.6289        -0.0823      23.2138
   43       4.1631        0.8349       3.3282         2.2347       1.9285
   44       5.5453        2.3939       3.1514         2.3832       3.1621
 Sum       34.1378        4.9809      29.1569         2.0556      32.0822

 Contributions to Isotropic shielding for atom   25 (    32.6950 ppm):
                         Standard Origin              Atomic Origin
 NLMO      Total    Paramagnetic  Diamagnetic   Paramagnetic  Diamagnetic
   16       1.7441       -0.3793       2.1234         0.7722       0.9719
   23       0.9855        1.3989      -0.4134        -0.0610       1.0466
   24       0.9254        1.6090      -0.6837        -0.0623       0.9876
   25      26.5992        0.1071      26.4921         0.4023      26.1969
   27       0.1719       -0.8693       1.0413        -0.8544       1.0263
   30       0.2057       -0.8693       1.0750        -0.7604       0.9661
 Sum       30.6318        0.9971      29.6348        -0.5636      31.1955

 Contributions to Isotropic shielding for atom   26 (    32.2313 ppm):
                         Standard Origin              Atomic Origin
 NLMO      Total    Paramagnetic  Diamagnetic   Paramagnetic  Diamagnetic
   23       1.4775       -0.6825       2.1600         0.5440       0.9335
   26      26.2091        0.2865      25.9226         0.4216      25.7874
   27       2.1006        0.7006       1.3999         0.3040       1.7966
   28       1.8522        2.1779      -0.3257         0.0543       1.7979
   43      -0.6103       -0.0070      -0.6034         0.4446      -1.0549
 Sum       31.0290        2.4755      28.5535         1.7685      29.2605

 Contributions to Isotropic shielding for atom   27 (    31.8794 ppm):
                         Standard Origin              Atomic Origin
 NLMO      Total    Paramagnetic  Diamagnetic   Paramagnetic  Diamagnetic
    8      -0.0904        0.0981      -0.1886        -1.0869       0.9964
   10       0.1020       -0.2440       0.3460        -1.0672       1.1692
   23       1.5148       -0.9711       2.4859         0.5140       1.0008
   26       2.0648        0.7076       1.3572         0.2357       1.8290
   27      26.1633        0.2864      25.8769         0.4038      25.7595
   28       1.8021        1.8723      -0.0702        -0.1034       1.9055
   43      -0.2725        0.0045      -0.2771         0.7764      -1.0490
 Sum       31.2840        1.7539      29.5301        -0.3276      31.6116

 Contributions to Isotropic shielding for atom   28 (    32.5707 ppm):
                         Standard Origin              Atomic Origin
 NLMO      Total    Paramagnetic  Diamagnetic   Paramagnetic  Diamagnetic
   23       1.2428        0.4319       0.8109         0.3066       0.9363
   24      -0.2487        0.6905      -0.9391        -1.3755       1.1268
   26       1.9609        1.8737       0.0872         0.0864       1.8745
   27       2.0011        1.6959       0.3052         0.0945       1.9066
   28      26.5192       -0.0152      26.5344         0.4705      26.0487
   31      -0.1561       -1.1849       1.0288        -1.0211       0.8650
 Sum       31.3192        3.4919      27.8273        -1.4386      32.7578

 Contributions to Isotropic shielding for atom   29 (    32.5336 ppm):
                         Standard Origin              Atomic Origin
 NLMO      Total    Paramagnetic  Diamagnetic   Paramagnetic  Diamagnetic
   24       1.5508       -0.8107       2.3615         0.5812       0.9696
   29      26.3445        0.2740      26.0706         0.4184      25.9261
   30       2.0391        0.8858       1.1533         0.2587       1.7804
   31       1.8715        2.2130      -0.3415         0.0630       1.8084
 Sum       31.8058        2.5620      29.2438         1.3214      30.4845

 Contributions to Isotropic shielding for atom   30 (    32.3502 ppm):
                         Standard Origin              Atomic Origin
 NLMO      Total    Paramagnetic  Diamagnetic   Paramagnetic  Diamagnetic
   12      -0.0434        0.1842      -0.2275        -1.0859       1.0425
   24       1.5364       -1.0672       2.6036         0.5270       1.0094
   29       2.0345        0.8670       1.1675         0.2038       1.8307
   30      26.3887        0.2247      26.1640         0.4042      25.9845
   31       1.8103        1.9648      -0.1546        -0.0961       1.9063
 Sum       31.7265        2.1735      29.5530        -0.0469      31.7734

 Contributions to Isotropic shielding for atom   31 (    32.5064 ppm):
                         Standard Origin              Atomic Origin
 NLMO      Total    Paramagnetic  Diamagnetic   Paramagnetic  Diamagnetic
   23      -0.2384        0.7762      -1.0147        -1.3358       1.0973
   24       1.3132        0.2305       1.0827         0.3241       0.9891
   28      -0.1580       -1.0565       0.8985        -1.0033       0.8453
   29       1.9357        1.8863       0.0495         0.0846       1.8512
   30       1.9585        1.7837       0.1749         0.0738       1.8848
   31      26.3783       -0.0056      26.3839         0.4723      25.9059
 Sum       31.1893        3.6145      27.5748        -1.3842      32.5735
 
 1\1\GINC-COMPUTE-10-7\SP\RHF\STO-3G\C10H20O1\YTSAI.IQUIR\24-May-2020\0
 \\# rhf/STO-3G nmr pop=nbo\\comment\\0,1\C,0,0.559143374,0.738869833,-
 2.952192292\C,0,-0.677842122,0.053431568,-2.368344212\C,0,0.428611319,
 -1.081937757,-0.352386942\C,0,-0.689816247,1.190050061,-0.089226094\C,
 0,-0.277060366,-0.114022915,0.631758766\C,0,-1.437366906,0.958125562,-
 1.399274165\C,0,-0.329083335,-1.259627806,-1.672437153\O,0,0.531474038
 ,-2.380967101,0.231482923\C,0,0.591201309,0.220189478,1.896197501\C,0,
 1.048496321,-1.014714597,2.680961786\C,0,-0.144836392,1.154067848,2.87
 003702\H,0,1.051338327,0.085210723,-3.680325959\H,0,0.277970006,1.6613
 43279,-3.471336766\H,0,1.296159279,0.997581101,-2.186511913\H,0,-1.344
 295017,-0.175119903,-3.210256801\H,0,1.446574675,-0.725748772,-0.54857
 518\H,0,0.198626422,1.804612872,-0.278629231\H,0,-1.347295213,1.783173
 952,0.55598132\H,0,-1.19143734,-0.610461345,0.987516194\H,0,-1.6522574
 29,1.923303189,-1.87342897\H,0,-2.409575694,0.50134948,-1.172542518\H,
 0,0.251778627,-1.903489751,-2.345599796\H,0,-1.255444393,-1.817522914,
 -1.475840623\H,0,1.03447001,-2.941441249,-0.383739986\H,0,1.496245192,
 0.745031505,1.561894959\H,0,0.20501238,-1.672354861,2.915202361\H,0,1.
 800130502,-1.583566912,2.126450398\H,0,1.521826214,-0.72745213,3.62670
 1582\H,0,-1.116959032,0.739018568,3.156377926\H,0,-0.304803458,2.14508
 8798,2.435678489\H,0,0.439014947,1.307980197,3.784407376\\Version=EM64
 L-G09RevC.01\State=1-A\HF=-459.6165993\RMSD=5.083e-09\Dipole=0.1437809
 ,0.1695377,-0.5023018\Quadrupole=0.9708741,-0.5259103,-0.4449638,-0.96
 05638,-0.7005346,2.300217\PG=C01 [X(C10H20O1)]\\@


 FESTINA LENTE!
     - IMPERATOR AUGUSTUS 
 Job cpu time:  0 days  0 hours  0 minutes 38.2 seconds.
 File lengths (MBytes):  RWF=      5 Int=      0 D2E=      0 Chk=      1 Scr=      1
 Normal termination of Gaussian 09 at Sun May 24 02:08:09 2020.
