 Entering Gaussian System, Link 0=g09
 Input=/home/ytsai.iquir/menthol/03_menthol_M0106_MMFF_NMR_rhf_STO-3G_nbo.gjc
 Output=/home/ytsai.iquir/menthol/03_menthol_M0106_MMFF_NMR_rhf_STO-3G_nbo.log
 Initial command:
 /share/apps/Gaussian09/EM64T.SSE4.2-enabled/g09/l1.exe /tmp/Gau-31505.inp -scrdir=/tmp/
 Entering Link 1 = /share/apps/Gaussian09/EM64T.SSE4.2-enabled/g09/l1.exe PID=     31506.
  
 Copyright (c) 1988,1990,1992,1993,1995,1998,2003,2009,2011,
            Gaussian, Inc.  All Rights Reserved.
  
 This is part of the Gaussian(R) 09 program.  It is based on
 the Gaussian(R) 03 system (copyright 2003, Gaussian, Inc.),
 the Gaussian(R) 98 system (copyright 1998, Gaussian, Inc.),
 the Gaussian(R) 94 system (copyright 1995, Gaussian, Inc.),
 the Gaussian 92(TM) system (copyright 1992, Gaussian, Inc.),
 the Gaussian 90(TM) system (copyright 1990, Gaussian, Inc.),
 the Gaussian 88(TM) system (copyright 1988, Gaussian, Inc.),
 the Gaussian 86(TM) system (copyright 1986, Carnegie Mellon
 University), and the Gaussian 82(TM) system (copyright 1983,
 Carnegie Mellon University). Gaussian is a federally registered
 trademark of Gaussian, Inc.
  
 This software contains proprietary and confidential information,
 including trade secrets, belonging to Gaussian, Inc.
  
 This software is provided under written license and may be
 used, copied, transmitted, or stored only in accord with that
 written license.
  
 The following legend is applicable only to US Government
 contracts under FAR:
  
                    RESTRICTED RIGHTS LEGEND
  
 Use, reproduction and disclosure by the US Government is
 subject to restrictions as set forth in subparagraphs (a)
 and (c) of the Commercial Computer Software - Restricted
 Rights clause in FAR 52.227-19.
  
 Gaussian, Inc.
 340 Quinnipiac St., Bldg. 40, Wallingford CT 06492
  
  
 ---------------------------------------------------------------
 Warning -- This program may not be used in any manner that
 competes with the business of Gaussian, Inc. or will provide
 assistance to any competitor of Gaussian, Inc.  The licensee
 of this program is prohibited from giving any competitor of
 Gaussian, Inc. access to this program.  By using this program,
 the user acknowledges that Gaussian, Inc. is engaged in the
 business of creating and licensing software in the field of
 computational chemistry and represents and warrants to the
 licensee that it is not a competitor of Gaussian, Inc. and that
 it will not use this program in any manner prohibited above.
 ---------------------------------------------------------------
  

 Cite this work as:
 Gaussian 09, Revision C.01,
 M. J. Frisch, G. W. Trucks, H. B. Schlegel, G. E. Scuseria, 
 M. A. Robb, J. R. Cheeseman, G. Scalmani, V. Barone, B. Mennucci, 
 G. A. Petersson, H. Nakatsuji, M. Caricato, X. Li, H. P. Hratchian, 
 A. F. Izmaylov, J. Bloino, G. Zheng, J. L. Sonnenberg, M. Hada, 
 M. Ehara, K. Toyota, R. Fukuda, J. Hasegawa, M. Ishida, T. Nakajima, 
 Y. Honda, O. Kitao, H. Nakai, T. Vreven, J. A. Montgomery, Jr., 
 J. E. Peralta, F. Ogliaro, M. Bearpark, J. J. Heyd, E. Brothers, 
 K. N. Kudin, V. N. Staroverov, T. Keith, R. Kobayashi, J. Normand, 
 K. Raghavachari, A. Rendell, J. C. Burant, S. S. Iyengar, J. Tomasi, 
 M. Cossi, N. Rega, J. M. Millam, M. Klene, J. E. Knox, J. B. Cross, 
 V. Bakken, C. Adamo, J. Jaramillo, R. Gomperts, R. E. Stratmann, 
 O. Yazyev, A. J. Austin, R. Cammi, C. Pomelli, J. W. Ochterski, 
 R. L. Martin, K. Morokuma, V. G. Zakrzewski, G. A. Voth, 
 P. Salvador, J. J. Dannenberg, S. Dapprich, A. D. Daniels, 
 O. Farkas, J. B. Foresman, J. V. Ortiz, J. Cioslowski, 
 and D. J. Fox, Gaussian, Inc., Wallingford CT, 2010.
 
 ******************************************
 Gaussian 09:  EM64L-G09RevC.01 23-Sep-2011
                 3-Aug-2021 
 ******************************************
 %nprocshared=4
 Will use up to    4 processors via shared memory.
 ------------------------
 # rhf/STO-3G nmr pop=nbo
 ------------------------
 1/38=1/1;
 2/12=2,17=6,18=5,40=1/2;
 3/6=3,11=1,16=1,25=1,30=1,116=1/1,2,8,3;
 4//1;
 5/5=2,38=5/2;
 8/6=1,10=90,11=11/1;
 10/13=100,45=16/2;
 6/7=2,8=2,9=2,10=2,28=1,64=1/1,7;
 99/9=1/99;
 -------
 comment
 -------
 Charge =  0 Multiplicity = 1
 Symbolic Z-Matrix:
 6                    -0.23428  -1.36386  -3.07867 
 6                    -1.02299  -1.18331  -1.78111 
 6                     0.55897  -1.04661   0.20549 
 6                    -1.42081   0.55049   0.01876 
 6                    -0.18629   0.14678   0.86328 
 6                    -1.20352   0.31128  -1.47208 
 6                    -0.37065  -1.9406   -0.61528 
 8                     1.18057  -1.84761   1.20987 
 6                     0.76563   1.35863   1.13985 
 6                     2.06359   0.95407   1.85275 
 6                     0.08473   2.4439    1.98897 
 1                    -0.72211  -0.83665  -3.9054 
 1                     0.78591  -0.97716  -2.98336 
 1                    -0.17011  -2.42295  -3.34986 
 1                    -2.01535  -1.62522  -1.94247 
 1                     1.35667  -0.67982  -0.4511 
 1                    -1.70833   1.59228   0.17612 
 1                    -2.28225  -0.04641   0.34732 
 1                    -0.56126  -0.17867   1.8444 
 1                    -0.33081   0.88744  -1.80469 
 1                    -2.06098   0.6946   -2.03831 
 1                     0.16771  -2.82874  -0.96917 
 1                    -1.15562  -2.33304   0.04614 
 1                     0.48102  -2.20393   1.78362 
 1                     1.04428   1.80997   0.17879 
 1                     2.66619   1.83626   2.09646 
 1                     1.85317   0.42323   2.78727 
 1                     2.68859   0.31507   1.22228 
 1                     0.78913   3.24803   2.22998 
 1                    -0.28729   2.0305    2.93257 
 1                    -0.75353   2.91205   1.46758 
 
                          Input orientation:                          
 ---------------------------------------------------------------------
 Center     Atomic      Atomic             Coordinates (Angstroms)
 Number     Number       Type             X           Y           Z
 ---------------------------------------------------------------------
      1          6           0       -0.234276   -1.363864   -3.078671
      2          6           0       -1.022989   -1.183314   -1.781111
      3          6           0        0.558970   -1.046606    0.205486
      4          6           0       -1.420812    0.550490    0.018756
      5          6           0       -0.186287    0.146779    0.863284
      6          6           0       -1.203521    0.311275   -1.472078
      7          6           0       -0.370655   -1.940604   -0.615278
      8          8           0        1.180575   -1.847608    1.209865
      9          6           0        0.765630    1.358633    1.139853
     10          6           0        2.063595    0.954074    1.852750
     11          6           0        0.084733    2.443897    1.988969
     12          1           0       -0.722109   -0.836653   -3.905396
     13          1           0        0.785913   -0.977156   -2.983362
     14          1           0       -0.170109   -2.422950   -3.349856
     15          1           0       -2.015346   -1.625219   -1.942473
     16          1           0        1.356667   -0.679820   -0.451102
     17          1           0       -1.708327    1.592281    0.176117
     18          1           0       -2.282246   -0.046407    0.347318
     19          1           0       -0.561256   -0.178673    1.844396
     20          1           0       -0.330808    0.887435   -1.804690
     21          1           0       -2.060985    0.694602   -2.038311
     22          1           0        0.167708   -2.828744   -0.969172
     23          1           0       -1.155623   -2.333044    0.046136
     24          1           0        0.481017   -2.203926    1.783624
     25          1           0        1.044277    1.809972    0.178791
     26          1           0        2.666193    1.836263    2.096460
     27          1           0        1.853165    0.423232    2.787270
     28          1           0        2.688591    0.315071    1.222284
     29          1           0        0.789133    3.248033    2.229983
     30          1           0       -0.287293    2.030500    2.932574
     31          1           0       -0.753526    2.912050    1.467584
 ---------------------------------------------------------------------
                    Distance matrix (angstroms):
                    1          2          3          4          5
     1  C    0.000000
     2  C    1.529159   0.000000
     3  C    3.393460   2.543197   0.000000
     4  C    3.829708   2.530584   2.550513   0.000000
     5  C    4.221771   3.076043   1.553149   1.549278   0.000000
     6  C    2.515287   1.536844   2.786474   1.525458   2.552595
     7  C    2.533679   1.535642   1.528754   2.776756   2.564626
     8  O    4.541734   3.773980   1.427156   3.733206   2.442541
     9  C    5.119350   4.265288   2.588614   2.586597   1.565640
    10  C    5.913709   5.224976   2.996681   3.958220   2.587032
    11  C    6.346793   5.347636   3.948332   3.119840   2.572425
    12  H    1.095174   2.173312   4.310985   4.220345   4.898423
    13  H    1.095177   2.181751   3.197667   4.026915   4.123723
    14  H    1.095136   2.173721   3.881537   4.664027   4.935009
    15  H    2.128723   1.098221   3.402297   2.988912   3.789156
    16  H    3.146924   2.772218   1.096339   3.073892   2.188967
    17  H    4.637377   3.464730   3.479256   1.092134   2.208683
    18  H    4.203245   2.721855   3.015464   1.098320   2.167161
    19  H    5.074266   3.790356   2.166619   2.145572   1.099591
    20  H    2.588570   2.183500   2.927973   2.150952   2.772642
    21  H    2.942192   2.161054   3.864013   2.159193   3.497693
    22  H    2.599510   2.187338   2.170005   3.862462   3.512398
    23  H    3.398913   2.162939   2.149452   2.895831   2.785115
    24  H    4.985906   4.001378   1.958568   3.783982   2.611155
    25  H    4.724297   4.132138   2.897632   2.772828   2.179227
    26  H    6.740587   6.145199   4.040682   4.761689   3.537191
    27  H    6.477683   5.632350   3.240521   4.289498   2.817359
    28  H    5.464448   5.004135   2.724579   4.288484   2.902090
    29  H    7.106248   6.245758   4.753471   4.129179   3.526625
    30  H    6.903592   5.752276   4.197827   3.459138   2.800102
    31  H    6.262706   5.234371   4.357350   2.849797   2.886809
                    6          7          8          9         10
     6  C    0.000000
     7  C    2.549261   0.000000
     8  O    4.187781   2.397105   0.000000
     9  C    3.434632   3.905969   3.233738   0.000000
    10  C    4.705499   4.516182   3.007066   1.535123   0.000000
    11  C    4.264566   5.119896   4.497208   1.537016   2.480730
    12  H    2.733228   3.488137   5.550507   5.699753   6.642521
    13  H    2.811029   2.806012   4.300767   4.738905   5.361912
    14  H    3.474188   2.784024   4.790242   5.944195   6.592483
    15  H    2.151823   2.136802   4.494508   5.112527   6.139563
    16  H    2.929031   2.144801   2.038025   2.652498   2.911544
    17  H    2.147638   3.859656   4.609471   2.665304   4.176817
    18  H    2.145177   2.858103   3.997429   3.448449   4.706763
    19  H    3.413437   3.031621   2.494382   2.149493   2.858850
    20  H    1.097370   3.068240   4.341922   3.177190   4.372011
    21  H    1.096724   3.438975   5.246064   4.304813   5.676253
    22  H    3.463077   1.097209   2.595521   4.726481   5.085995
    23  H    3.049539   1.098933   2.654757   4.303012   4.942910
    24  H    4.445616   2.559183   0.972391   3.631428   3.533029
    25  H    3.166079   4.086490   3.802575   1.097721   2.138623
    26  H    5.480396   5.553440   4.069892   2.180680   1.095800
    27  H    5.243845   4.702173   2.845575   2.184420   1.095171
    28  H    4.733724   4.221812   2.636560   2.189427   1.093815
    29  H    5.128398   6.030138   5.211470   2.181460   2.651190
    30  H    4.816240   5.325774   4.490220   2.184926   2.802033
    31  H    3.950713   5.294635   5.144075   2.197351   3.452274
                   11         12         13         14         15
    11  C    0.000000
    12  H    6.793861   0.000000
    13  H    6.076128   1.773138   0.000000
    14  H    7.228706   1.769086   1.771614   0.000000
    15  H    6.035253   2.479388   3.057857   2.453977   0.000000
    16  H    4.162855   4.034607   2.612759   3.711108   3.806368
    17  H    2.688261   4.850886   4.775516   5.560637   3.864581
    18  H    3.807784   4.598270   4.623129   4.876287   2.794105
    19  H    2.704825   5.789552   5.075400   5.671862   4.306652
    20  H    4.121541   2.745644   2.472455   3.656776   3.028215
    21  H    4.887037   2.761039   3.434054   3.874879   2.322248
    22  H    6.046340   3.658088   2.804910   2.438534   2.676100
    23  H    5.303984   4.247555   3.845238   3.537242   2.279190
    24  H    4.669203   5.973432   4.931743   5.179243   4.522226
    25  H    2.144606   5.177386   4.223037   5.643023   5.065727
    26  H    2.654187   7.392385   6.103718   7.473143   7.086018
    27  H    2.801378   7.280873   6.033267   7.061069   6.444532
    28  H    3.449605   6.265177   4.793485   6.047594   5.992281
    29  H    1.095856   7.524053   6.710529   8.013413   7.001648
    30  H    1.095304   7.427480   6.722802   7.701680   6.333761
    31  H    1.092561   6.551540   6.107923   7.211819   5.814421
                   16         17         18         19         20
    16  H    0.000000
    17  H    3.866527   0.000000
    18  H    3.778937   1.744703   0.000000
    19  H    3.032966   2.689833   2.284851   0.000000
    20  H    2.671341   2.513556   3.051444   3.808612   0.000000
    21  H    4.011061   2.415345   2.507843   4.252906   1.756495
    22  H    2.509959   4.937272   3.934058   3.933246   3.841432
    23  H    3.048277   3.966176   2.566846   2.868505   3.804913
    24  H    2.843178   4.667814   3.788599   2.278524   4.805369
    25  H    2.587163   2.761201   3.813175   3.050686   2.583821
    26  H    3.812559   4.783688   5.575930   3.813126   5.010116
    27  H    3.456918   4.568262   4.824474   2.660964   5.106008
    28  H    2.358824   4.696660   5.060183   3.345491   4.313577
    29  H    4.789398   3.632793   4.881714   3.703315   4.806794
    30  H    4.636561   3.132001   3.870004   2.477829   4.873414
    31  H    4.586480   2.078779   3.513467   3.119540   3.871115
                   21         22         23         24         25
    21  H    0.000000
    22  H    4.303963   0.000000
    23  H    3.785662   1.740050   0.000000
    24  H    5.428667   2.840149   2.390424   0.000000
    25  H    3.975204   4.858382   4.692732   4.359372   0.000000
    26  H    6.383255   6.115785   6.016081   4.603910   2.511724
    27  H    6.219361   5.246615   4.915657   3.129226   3.062925
    28  H    5.773560   4.587037   4.813919   3.396150   2.455071
    29  H    5.732496   6.895504   6.300768   5.478871   2.518036
    30  H    5.444291   6.248431   5.303398   4.454295   3.066763
    31  H    4.349463   6.304218   5.449147   5.272304   2.471369
                   26         27         28         29         30
    26  H    0.000000
    27  H    1.770562   0.000000
    28  H    1.754625   1.777305   0.000000
    29  H    2.352504   3.069566   3.636710   0.000000
    30  H    3.075694   2.680669   3.837144   1.770512   0.000000
    31  H    3.639682   3.838050   4.318870   1.753263   1.772203
                   31
    31  H    0.000000
 Stoichiometry    C10H20O
 Framework group  C1[X(C10H20O)]
 Deg. of freedom    87
 Full point group                 C1      NOp   1
 Largest Abelian subgroup         C1      NOp   1
 Largest concise Abelian subgroup C1      NOp   1
                         Standard orientation:                         
 ---------------------------------------------------------------------
 Center     Atomic      Atomic             Coordinates (Angstroms)
 Number     Number       Type             X           Y           Z
 ---------------------------------------------------------------------
      1          6           0       -3.186713   -0.146110    1.084847
      2          6           0       -2.325253   -0.370064   -0.158560
      3          6           0       -0.212368    1.040285   -0.038234
      4          6           0       -0.103278   -1.385462   -0.818599
      5          6           0        0.718139   -0.106371   -0.519493
      6          6           0       -1.325318   -1.511265    0.085733
      7          6           0       -1.628661    0.924661   -0.602001
      8          8           0        0.325232    2.302725   -0.430674
      9          6           0        1.891767   -0.375217    0.481280
     10          6           0        2.630160    0.903659    0.900630
     11          6           0        2.932088   -1.346781   -0.098560
     12          1           0       -3.693915   -1.071774    1.376906
     13          1           0       -2.583211    0.193438    1.933319
     14          1           0       -3.955761    0.609688    0.893387
     15          1           0       -3.001567   -0.670874   -0.969857
     16          1           0       -0.273807    1.044396    1.056374
     17          1           0        0.498144   -2.293354   -0.736262
     18          1           0       -0.442413   -1.349623   -1.862635
     19          1           0        1.186366    0.202686   -1.465193
     20          1           0       -0.997134   -1.526016    1.132776
     21          1           0       -1.823836   -2.471194   -0.095426
     22          1           0       -2.220758    1.807917   -0.331544
     23          1           0       -1.573502    0.948778   -1.699283
     24          1           0        0.358599    2.324598   -1.402245
     25          1           0        1.477808   -0.830062    1.390535
     26          1           0        3.489282    0.666899    1.538307
     27          1           0        3.001359    1.450897    0.027623
     28          1           0        1.986050    1.570102    1.481498
     29          1           0        3.778260   -1.465451    0.587597
     30          1           0        3.324055   -0.980738   -1.053581
     31          1           0        2.520744   -2.346127   -0.259160
 ---------------------------------------------------------------------
 Rotational constants (GHZ):      1.6227863      0.7533044      0.6070162
 Standard basis: STO-3G (5D, 7F)
 There are    75 symmetry adapted basis functions of A   symmetry.
 Integral buffers will be    131072 words long.
 Raffenetti 1 integral format.
 Two-electron integral symmetry is turned on.
    75 basis functions,   225 primitive gaussians,    75 cartesian basis functions
    44 alpha electrons       44 beta electrons
       nuclear repulsion energy       693.5050631662 Hartrees.
 NAtoms=   31 NActive=   31 NUniq=   31 SFac= 1.00D+00 NAtFMM=   60 NAOKFM=F Big=F
 One-electron integrals computed using PRISM.
 NBasis=    75 RedAO= T  NBF=    75
 NBsUse=    75 1.00D-06 NBFU=    75
 Harris functional with IExCor=  205 diagonalized for initial guess.
 ExpMin= 1.69D-01 ExpMax= 1.31D+02 ExpMxC= 1.31D+02 IAcc=1 IRadAn=         1 AccDes= 0.00D+00
 HarFok:  IExCor=  205 AccDes= 0.00D+00 IRadAn=         1 IDoV= 1
 ScaDFX=  1.000000  1.000000  1.000000  1.000000
 FoFCou: FMM=F IPFlag=           0 FMFlag=      100000 FMFlg1=           0
         NFxFlg=           0 DoJE=T BraDBF=F KetDBF=T FulRan=T
         Omega=  0.000000  0.000000  1.000000  0.000000  0.000000 ICntrl=     500 IOpCl=  0
         NMat0=    1 NMatS0=    1 NMatT0=    0 NMatD0=    1 NMtDS0=    0 NMtDT0=    0
         I1Cent=           4 NGrid=           0.
 Petite list used in FoFCou.
 Initial guess orbital symmetries:
       Occupied  (A) (A) (A) (A) (A) (A) (A) (A) (A) (A) (A) (A)
                 (A) (A) (A) (A) (A) (A) (A) (A) (A) (A) (A) (A)
                 (A) (A) (A) (A) (A) (A) (A) (A) (A) (A) (A) (A)
                 (A) (A) (A) (A) (A) (A) (A) (A)
       Virtual   (A) (A) (A) (A) (A) (A) (A) (A) (A) (A) (A) (A)
                 (A) (A) (A) (A) (A) (A) (A) (A) (A) (A) (A) (A)
                 (A) (A) (A) (A) (A) (A) (A)
 The electronic state of the initial guess is 1-A.
 Requested convergence on RMS density matrix=1.00D-08 within 128 cycles.
 Requested convergence on MAX density matrix=1.00D-06.
 Requested convergence on             energy=1.00D-06.
 No special actions if energy rises.
 Keep R1 ints in memory in canonical form, NReq=4898789.
 SCF Done:  E(RHF) =  -459.611688704     A.U. after   10 cycles
             Convg  =    0.6887D-08             -V/T =  2.0089
 Range of M.O.s used for correlation:     1    75
 NBasis=    75 NAE=    44 NBE=    44 NFC=     0 NFV=     0
 NROrb=     75 NOA=    44 NOB=    44 NVA=    31 NVB=    31
          Differentiating once with respect to magnetic field using GIAOs.
          Electric field/nuclear overlap derivatives assumed to be zero.
          Keep R3 ints in memory in canonical form, NReq=4863575.
 FoFCou: FMM=F IPFlag=           0 FMFlag=           0 FMFlg1=           0
         NFxFlg=           0 DoJE=F BraDBF=F KetDBF=T FulRan=T
         Omega=  0.000000  0.000000  1.000000  0.000000  0.000000 ICntrl=    6100 IOpCl=  0
         NMat0=    1 NMatS0=    1 NMatT0=    0 NMatD0=    1 NMtDS0=    0 NMtDT0=    0
         I1Cent=           7 NGrid=          31.
 Symmetry not used in FoFCou.
          There are     3 degrees of freedom in the 1st order CPHF.  IDoFFX=0.
      3 vectors produced by pass  0 Test12= 4.55D-14 3.33D-08 XBig12= 7.14D+00 4.06D-01.
 AX will form     3 AO Fock derivatives at one time.
      3 vectors produced by pass  1 Test12= 4.55D-14 3.33D-08 XBig12= 1.08D-02 1.26D-02.
      3 vectors produced by pass  2 Test12= 4.55D-14 3.33D-08 XBig12= 7.39D-05 2.33D-03.
      3 vectors produced by pass  3 Test12= 4.55D-14 3.33D-08 XBig12= 1.65D-06 3.71D-04.
      3 vectors produced by pass  4 Test12= 4.55D-14 3.33D-08 XBig12= 2.23D-08 3.75D-05.
      3 vectors produced by pass  5 Test12= 4.55D-14 3.33D-08 XBig12= 3.87D-10 3.30D-06.
      3 vectors produced by pass  6 Test12= 4.55D-14 3.33D-08 XBig12= 4.42D-12 4.46D-07.
      1 vectors produced by pass  7 Test12= 4.55D-14 3.33D-08 XBig12= 4.83D-14 3.82D-08.
 Inverted reduced A of dimension    22 with in-core refinement.
 Calculating GIAO nuclear magnetic shielding tensors.
 SCF GIAO Magnetic shielding tensor (ppm):
      1  C    Isotropic =   220.9783   Anisotropy =    26.7832
   XX=   223.6593   YX=    -6.6499   ZX=   -11.5865
   XY=    -3.6877   YY=   214.2522   ZY=     0.9578
   XZ=   -16.3179   YZ=    -0.9945   ZZ=   225.0234
   Eigenvalues:   207.9686   216.1324   238.8337
      2  C    Isotropic =   216.3352   Anisotropy =     9.6811
   XX=   220.9485   YX=    -0.8743   ZX=    -5.2350
   XY=    -1.9311   YY=   218.9627   ZY=    -1.0093
   XZ=    -4.3798   YZ=    -2.7722   ZZ=   209.0944
   Eigenvalues:   206.9665   219.2498   222.7892
      3  C    Isotropic =   188.8068   Anisotropy =    39.5770
   XX=   186.9054   YX=    10.0430   ZX=    -3.2207
   XY=     8.5523   YY=   208.8478   ZY=   -11.2516
   XZ=    -4.1857   YZ=   -10.3789   ZZ=   170.6672
   Eigenvalues:   167.7299   183.4991   215.1914
      4  C    Isotropic =   218.8705   Anisotropy =    15.1318
   XX=   225.2146   YX=     5.5175   ZX=    -1.4586
   XY=     5.5920   YY=   220.7095   ZY=     2.6492
   XZ=    -2.0405   YZ=     3.2341   ZZ=   210.6873
   Eigenvalues:   209.1850   218.4681   228.9583
      5  C    Isotropic =   206.0934   Anisotropy =    13.8477
   XX=   211.0628   YX=    -6.8543   ZX=    -0.1598
   XY=    -5.1682   YY=   206.5759   ZY=    -0.4602
   XZ=     0.3611   YZ=    -3.2493   ZZ=   200.6415
   Eigenvalues:   199.7479   203.2071   215.3251
      6  C    Isotropic =   217.8089   Anisotropy =    18.3182
   XX=   222.0189   YX=    -7.4624   ZX=    -6.3400
   XY=    -9.5581   YY=   218.4535   ZY=     0.3714
   XZ=    -4.1742   YZ=     0.1540   ZZ=   212.9544
   Eigenvalues:   208.6811   214.7246   230.0211
      7  C    Isotropic =   215.2471   Anisotropy =    19.0102
   XX=   223.4192   YX=     8.7196   ZX=    -2.8734
   XY=     4.1857   YY=   217.4352   ZY=    -4.7028
   XZ=    -0.7959   YZ=    -0.5320   ZZ=   204.8870
   Eigenvalues:   204.3449   213.4758   227.9206
      8  O    Isotropic =   344.1541   Anisotropy =    79.6801
   XX=   311.5880   YX=     0.7339   ZX=     1.7871
   XY=    -3.5996   YY=   324.4615   ZY=    20.3361
   XZ=   -11.4826   YZ=    -7.4227   ZZ=   396.4127
   Eigenvalues:   311.2231   323.9650   397.2742
      9  C    Isotropic =   212.6773   Anisotropy =    15.8468
   XX=   217.8294   YX=    -4.5747   ZX=     6.8200
   XY=    -4.3601   YY=   211.5515   ZY=     1.9239
   XZ=     9.5259   YZ=     3.0821   ZZ=   208.6509
   Eigenvalues:   201.7982   212.9918   223.2418
     10  C    Isotropic =   221.3098   Anisotropy =    23.4265
   XX=   220.9847   YX=     7.9202   ZX=     8.0659
   XY=     5.3617   YY=   230.5768   ZY=     6.8163
   XZ=     6.4089   YZ=     4.6188   ZZ=   212.3679
   Eigenvalues:   208.0963   218.9056   236.9274
     11  C    Isotropic =   221.1624   Anisotropy =    27.0014
   XX=   225.9078   YX=   -13.6045   ZX=    -3.7969
   XY=   -12.1977   YY=   221.1464   ZY=     5.8376
   XZ=    -3.2195   YZ=     9.1563   ZZ=   216.4331
   Eigenvalues:   208.3715   215.9524   239.1634
     12  H    Isotropic =    32.4410   Anisotropy =    13.9513
   XX=    33.9309   YX=     4.6114   ZX=    -5.1646
   XY=     4.9260   YY=    33.5976   ZY=    -3.2395
   XZ=    -5.3653   YZ=    -3.5907   ZZ=    29.7945
   Eigenvalues:    26.2018    29.3793    41.7418
     13  H    Isotropic =    32.5746   Anisotropy =     9.6770
   XX=    31.7338   YX=     0.9694   ZX=     0.1213
   XY=     1.0584   YY=    27.8969   ZY=     3.1011
   XZ=     0.1829   YZ=     3.2487   ZZ=    38.0932
   Eigenvalues:    26.8117    31.8862    39.0260
     14  H    Isotropic =    32.4735   Anisotropy =    14.2628
   XX=    37.6414   YX=    -6.5300   ZX=    -2.1614
   XY=    -6.3251   YY=    31.7512   ZY=    -0.4732
   XZ=    -2.2246   YZ=     0.0308   ZZ=    28.0278
   Eigenvalues:    26.3557    29.0827    41.9820
     15  H    Isotropic =    32.4089   Anisotropy =    14.0013
   XX=    35.3393   YX=     2.7707   ZX=     6.1266
   XY=     2.9960   YY=    28.2093   ZY=     2.3120
   XZ=     6.1370   YZ=     2.5277   ZZ=    33.6779
   Eigenvalues:    27.1583    28.3252    41.7430
     16  H    Isotropic =    31.6306   Anisotropy =     5.9346
   XX=    32.0870   YX=     0.2656   ZX=    -0.4639
   XY=     0.5459   YY=    27.7208   ZY=     1.3121
   XZ=     0.1664   YZ=     2.6638   ZZ=    35.0840
   Eigenvalues:    27.1807    32.1241    35.5870
     17  H    Isotropic =    32.5036   Anisotropy =    12.8483
   XX=    34.7698   YX=    -4.1567   ZX=    -0.1413
   XY=    -4.5780   YY=    37.7791   ZY=     2.2088
   XZ=     0.2220   YZ=     1.9571   ZZ=    24.9620
   Eigenvalues:    24.5727    31.8690    41.0692
     18  H    Isotropic =    32.6001   Anisotropy =    12.4584
   XX=    29.7321   YX=     0.6170   ZX=     2.0821
   XY=     0.6336   YY=    28.4733   ZY=     3.2555
   XZ=     1.8020   YZ=     3.4740   ZZ=    39.5950
   Eigenvalues:    27.5311    29.3636    40.9057
     19  H    Isotropic =    33.0951   Anisotropy =     9.4291
   XX=    33.0700   YX=     0.9406   ZX=    -3.0685
   XY=     0.6550   YY=    29.6564   ZY=    -2.9081
   XZ=    -3.5886   YZ=    -2.6583   ZZ=    36.5591
   Eigenvalues:    28.6336    31.2706    39.3812
     20  H    Isotropic =    32.9641   Anisotropy =     8.8802
   XX=    32.4531   YX=    -0.5954   ZX=     0.5871
   XY=    -0.4992   YY=    28.9704   ZY=    -3.5525
   XZ=     0.5834   YZ=    -3.6800   ZZ=    37.4690
   Eigenvalues:    27.6197    32.3885    38.8843
     21  H    Isotropic =    32.4216   Anisotropy =    14.7547
   XX=    31.6377   YX=     4.6552   ZX=    -0.8671
   XY=     4.8321   YY=    40.1126   ZY=     0.8300
   XZ=    -0.6703   YZ=     1.1938   ZZ=    25.5146
   Eigenvalues:    25.2044    29.8024    42.2581
     22  H    Isotropic =    32.1967   Anisotropy =    12.9229
   XX=    33.8258   YX=    -5.1134   ZX=    -1.8569
   XY=    -5.1969   YY=    36.9184   ZY=    -0.3115
   XZ=    -1.7488   YZ=    -0.0724   ZZ=    25.8457
   Eigenvalues:    25.2741    30.5039    40.8119
     23  H    Isotropic =    32.8100   Anisotropy =    11.2866
   XX=    30.3223   YX=    -0.2830   ZX=     1.2625
   XY=     0.1917   YY=    29.2137   ZY=    -3.5720
   XZ=     2.1944   YZ=    -3.5390   ZZ=    38.8942
   Eigenvalues:    27.9347    30.1610    40.3344
     24  H    Isotropic =    35.3601   Anisotropy =    15.6449
   XX=    28.9700   YX=     2.5838   ZX=    -1.4090
   XY=     2.7647   YY=    34.9538   ZY=    -4.6678
   XZ=    -1.9462   YZ=    -6.8131   ZZ=    42.1566
   Eigenvalues:    27.9255    32.3648    45.7901
     25  H    Isotropic =    32.6785   Anisotropy =     9.2066
   XX=    32.1958   YX=     1.5518   ZX=    -1.2426
   XY=     1.3076   YY=    29.5267   ZY=    -4.3575
   XZ=    -1.2787   YZ=    -4.1146   ZZ=    36.3130
   Eigenvalues:    27.3709    31.8484    38.8162
     26  H    Isotropic =    32.5133   Anisotropy =    14.4587
   XX=    36.5539   YX=     0.2739   ZX=     7.6207
   XY=     0.3774   YY=    29.1183   ZY=     1.2406
   XZ=     7.3783   YZ=     1.4131   ZZ=    31.8678
   Eigenvalues:    26.0941    29.2934    42.1524
     27  H    Isotropic =    32.3841   Anisotropy =    10.7859
   XX=    32.9148   YX=     4.4733   ZX=    -1.4596
   XY=     4.5510   YY=    33.3547   ZY=    -4.0420
   XZ=    -1.9425   YZ=    -3.8743   ZZ=    30.8829
   Eigenvalues:    27.4177    30.1599    39.5747
     28  H    Isotropic =    32.0115   Anisotropy =     9.9227
   XX=    32.0476   YX=    -1.8994   ZX=     0.4762
   XY=    -2.3136   YY=    33.0331   ZY=     6.4146
   XZ=     0.4849   YZ=     6.1521   ZZ=    30.9539
   Eigenvalues:    25.1811    32.2268    38.6267
     29  H    Isotropic =    32.4852   Anisotropy =    14.2262
   XX=    37.6851   YX=    -4.3107   ZX=     5.5805
   XY=    -4.5393   YY=    29.8948   ZY=    -0.6446
   XZ=     5.3058   YZ=    -0.5787   ZZ=    29.8757
   Eigenvalues:    26.1939    29.2923    41.9693
     30  H    Isotropic =    32.6757   Anisotropy =    11.6203
   XX=    33.7746   YX=    -1.0057   ZX=    -5.5410
   XY=    -1.0488   YY=    28.6452   ZY=    -0.4026
   XZ=    -5.7599   YZ=    -0.5786   ZZ=    35.6074
   Eigenvalues:    27.6901    29.9144    40.4226
     31  H    Isotropic =    32.3845   Anisotropy =    11.2577
   XX=    31.8875   YX=    -0.4704   ZX=     0.7199
   XY=    -0.2524   YY=    39.3680   ZY=     2.5097
   XZ=     0.9686   YZ=     2.8673   ZZ=    25.8980
   Eigenvalues:    25.2597    32.0042    39.8896
 End of Minotr Frequency-dependent properties file   721 does not exist.
 End of Minotr Frequency-dependent properties file   722 does not exist.

 **********************************************************************

            Population analysis using the SCF density.

 **********************************************************************

 Orbital symmetries:
       Occupied  (A) (A) (A) (A) (A) (A) (A) (A) (A) (A) (A) (A)
                 (A) (A) (A) (A) (A) (A) (A) (A) (A) (A) (A) (A)
                 (A) (A) (A) (A) (A) (A) (A) (A) (A) (A) (A) (A)
                 (A) (A) (A) (A) (A) (A) (A) (A)
       Virtual   (A) (A) (A) (A) (A) (A) (A) (A) (A) (A) (A) (A)
                 (A) (A) (A) (A) (A) (A) (A) (A) (A) (A) (A) (A)
                 (A) (A) (A) (A) (A) (A) (A)
 The electronic state is 1-A.
 Alpha  occ. eigenvalues --  -20.23719 -11.08556 -11.04746 -11.04529 -11.04366
 Alpha  occ. eigenvalues --  -11.03791 -11.03745 -11.03653 -11.03225 -11.02894
 Alpha  occ. eigenvalues --  -11.02293  -1.27780  -1.08300  -1.03539  -0.96853
 Alpha  occ. eigenvalues --   -0.94527  -0.88420  -0.87950  -0.80299  -0.78280
 Alpha  occ. eigenvalues --   -0.73660  -0.69451  -0.62623  -0.61693  -0.58525
 Alpha  occ. eigenvalues --   -0.56416  -0.54834  -0.54395  -0.53673  -0.52144
 Alpha  occ. eigenvalues --   -0.51695  -0.50173  -0.49540  -0.47578  -0.47026
 Alpha  occ. eigenvalues --   -0.46289  -0.43962  -0.42865  -0.42475  -0.41649
 Alpha  occ. eigenvalues --   -0.39791  -0.39165  -0.36043  -0.32381
 Alpha virt. eigenvalues --    0.53270   0.54496   0.57879   0.59526   0.61111
 Alpha virt. eigenvalues --    0.61542   0.62089   0.63913   0.65096   0.65464
 Alpha virt. eigenvalues --    0.68466   0.68877   0.70748   0.71339   0.71622
 Alpha virt. eigenvalues --    0.72376   0.73094   0.74053   0.75407   0.76345
 Alpha virt. eigenvalues --    0.76772   0.76984   0.77575   0.79048   0.80266
 Alpha virt. eigenvalues --    0.81093   0.82082   0.83571   0.85171   0.86467
 Alpha virt. eigenvalues --    0.87211
          Condensed to atoms (all electrons):
              1          2          3          4          5          6
     1  C    4.741301   0.364937  -0.000152   0.000757   0.000014  -0.024931
     2  C    0.364937   4.747379  -0.019835  -0.022645  -0.002284   0.362662
     3  C   -0.000152  -0.019835   4.743594  -0.021008   0.354492  -0.007887
     4  C    0.000757  -0.022645  -0.021008   4.760901   0.357994   0.363099
     5  C    0.000014  -0.002284   0.354492   0.357994   4.793774  -0.021407
     6  C   -0.024931   0.362662  -0.007887   0.363099  -0.021407   4.757490
     7  C   -0.024118   0.359771   0.358241  -0.007266  -0.023239  -0.022420
     8  O   -0.000001   0.000262   0.269544   0.000244  -0.017959   0.000006
     9  C    0.000000   0.000009  -0.019599  -0.019877   0.357958  -0.000187
    10  C    0.000000   0.000000  -0.002669   0.000563  -0.019930  -0.000002
    11  C    0.000000   0.000000   0.000565  -0.002453  -0.020828   0.000026
    12  H    0.382409  -0.020162  -0.000010   0.000014   0.000000  -0.002211
    13  H    0.382145  -0.020723  -0.000050   0.000016   0.000010  -0.002316
    14  H    0.382506  -0.020228   0.000018  -0.000018  -0.000001   0.001301
    15  H   -0.024859   0.383314   0.001234  -0.000121   0.000002  -0.023625
    16  H    0.000016  -0.001597   0.378703   0.000389  -0.023267  -0.000060
    17  H   -0.000016   0.001291   0.001006   0.383707  -0.019272  -0.022030
    18  H    0.000010  -0.002805   0.000187   0.381476  -0.022015  -0.023454
    19  H    0.000000   0.000042  -0.023205  -0.023628   0.378413   0.001232
    20  H   -0.004990  -0.021756  -0.000049  -0.023359  -0.002384   0.381638
    21  H   -0.000059  -0.021700   0.000065  -0.021008   0.001201   0.383359
    22  H   -0.005160  -0.019831  -0.020532   0.000066   0.001118   0.001079
    23  H    0.001321  -0.021430  -0.023868  -0.000214  -0.002286   0.000269
    24  H    0.000000  -0.000007  -0.042046   0.000000  -0.003104   0.000003
    25  H    0.000000   0.000010  -0.001273  -0.002101  -0.023352  -0.000073
    26  H    0.000000   0.000000   0.000027  -0.000012   0.001072   0.000000
    27  H    0.000000   0.000000  -0.000032   0.000006  -0.002156   0.000000
    28  H    0.000000   0.000000  -0.000925   0.000003  -0.001126   0.000001
    29  H    0.000000   0.000000  -0.000012   0.000032   0.001093   0.000000
    30  H    0.000000   0.000000   0.000013   0.000062  -0.002497  -0.000001
    31  H    0.000000   0.000000  -0.000001  -0.001348  -0.001052   0.000020
              7          8          9         10         11         12
     1  C   -0.024118  -0.000001   0.000000   0.000000   0.000000   0.382409
     2  C    0.359771   0.000262   0.000009   0.000000   0.000000  -0.020162
     3  C    0.358241   0.269544  -0.019599  -0.002669   0.000565  -0.000010
     4  C   -0.007266   0.000244  -0.019877   0.000563  -0.002453   0.000014
     5  C   -0.023239  -0.017959   0.357958  -0.019930  -0.020828   0.000000
     6  C   -0.022420   0.000006  -0.000187  -0.000002   0.000026  -0.002211
     7  C    4.786423  -0.020314   0.000579   0.000014  -0.000004   0.001290
     8  O   -0.020314   7.845789   0.000114  -0.000602  -0.000003   0.000000
     9  C    0.000579   0.000114   4.742027   0.364203   0.364530   0.000000
    10  C    0.000014  -0.000602   0.364203   4.742393  -0.027736   0.000000
    11  C   -0.000004  -0.000003   0.364530  -0.027736   4.745527   0.000000
    12  H    0.001290   0.000000   0.000000   0.000000   0.000000   0.630232
    13  H   -0.001901  -0.000001   0.000000   0.000000   0.000000  -0.021667
    14  H   -0.002349   0.000000   0.000000   0.000000   0.000000  -0.021684
    15  H   -0.024741  -0.000006   0.000000   0.000000   0.000000  -0.002279
    16  H   -0.025526  -0.018692  -0.003972  -0.000678   0.000020  -0.000008
    17  H    0.000059  -0.000004  -0.004025   0.000026  -0.001526  -0.000001
    18  H   -0.000349  -0.000001   0.001150  -0.000013   0.000044   0.000000
    19  H   -0.000086  -0.002588  -0.024667  -0.001418  -0.003026   0.000000
    20  H    0.000061   0.000000   0.000014  -0.000006   0.000007  -0.000105
    21  H    0.001185   0.000000  -0.000005   0.000000   0.000000   0.000168
    22  H    0.382632  -0.000777  -0.000012   0.000000   0.000000   0.000074
    23  H    0.379803  -0.001143   0.000004  -0.000001   0.000000  -0.000037
    24  H   -0.003209   0.257360   0.000002   0.000037   0.000000   0.000000
    25  H    0.000001   0.000008   0.379926  -0.024444  -0.024045   0.000000
    26  H    0.000000   0.000015  -0.019685   0.382111  -0.003778   0.000000
    27  H   -0.000002  -0.000080  -0.020796   0.382121  -0.001660   0.000000
    28  H    0.000011  -0.000197  -0.019423   0.383055   0.001367   0.000000
    29  H    0.000000   0.000000  -0.019457  -0.003736   0.382575   0.000000
    30  H    0.000000   0.000000  -0.020791  -0.001646   0.381718   0.000000
    31  H    0.000000   0.000000  -0.019154   0.001360   0.382444   0.000000
             13         14         15         16         17         18
     1  C    0.382145   0.382506  -0.024859   0.000016  -0.000016   0.000010
     2  C   -0.020723  -0.020228   0.383314  -0.001597   0.001291  -0.002805
     3  C   -0.000050   0.000018   0.001234   0.378703   0.001006   0.000187
     4  C    0.000016  -0.000018  -0.000121   0.000389   0.383707   0.381476
     5  C    0.000010  -0.000001   0.000002  -0.023267  -0.019272  -0.022015
     6  C   -0.002316   0.001301  -0.023625  -0.000060  -0.022030  -0.023454
     7  C   -0.001901  -0.002349  -0.024741  -0.025526   0.000059  -0.000349
     8  O   -0.000001   0.000000  -0.000006  -0.018692  -0.000004  -0.000001
     9  C    0.000000   0.000000   0.000000  -0.003972  -0.004025   0.001150
    10  C    0.000000   0.000000   0.000000  -0.000678   0.000026  -0.000013
    11  C    0.000000   0.000000   0.000000   0.000020  -0.001526   0.000044
    12  H   -0.021667  -0.021684  -0.002279  -0.000008  -0.000001   0.000000
    13  H    0.631499  -0.021813   0.001938  -0.000016  -0.000001  -0.000001
    14  H   -0.021813   0.630806  -0.002546   0.000008   0.000000   0.000000
    15  H    0.001938  -0.002546   0.652946  -0.000004  -0.000021   0.000323
    16  H   -0.000016   0.000008  -0.000004   0.632077  -0.000031  -0.000018
    17  H   -0.000001   0.000000  -0.000021  -0.000031   0.635138  -0.024246
    18  H   -0.000001   0.000000   0.000323  -0.000018  -0.024246   0.649610
    19  H    0.000000   0.000000   0.000000   0.001616   0.000336  -0.005953
    20  H    0.000329   0.000066   0.001839  -0.000411  -0.001796   0.002026
    21  H    0.000010  -0.000022  -0.005492   0.000005  -0.002834  -0.001889
    22  H    0.000033   0.000088   0.000446  -0.002299   0.000000   0.000006
    23  H    0.000000   0.000046  -0.006319   0.001939   0.000003  -0.000525
    24  H    0.000000   0.000000   0.000000   0.003556  -0.000001   0.000004
    25  H    0.000000   0.000000   0.000000   0.000338   0.000084   0.000004
    26  H    0.000000   0.000000   0.000000  -0.000007  -0.000002   0.000000
    27  H    0.000000   0.000000   0.000000   0.000037   0.000001   0.000000
    28  H    0.000000   0.000000   0.000000  -0.000632   0.000000   0.000000
    29  H    0.000000   0.000000   0.000000  -0.000001  -0.000008   0.000001
    30  H    0.000000   0.000000   0.000000   0.000000   0.000051  -0.000014
    31  H    0.000000   0.000000   0.000000   0.000001  -0.000954  -0.000011
             19         20         21         22         23         24
     1  C    0.000000  -0.004990  -0.000059  -0.005160   0.001321   0.000000
     2  C    0.000042  -0.021756  -0.021700  -0.019831  -0.021430  -0.000007
     3  C   -0.023205  -0.000049   0.000065  -0.020532  -0.023868  -0.042046
     4  C   -0.023628  -0.023359  -0.021008   0.000066  -0.000214   0.000000
     5  C    0.378413  -0.002384   0.001201   0.001118  -0.002286  -0.003104
     6  C    0.001232   0.381638   0.383359   0.001079   0.000269   0.000003
     7  C   -0.000086   0.000061   0.001185   0.382632   0.379803  -0.003209
     8  O   -0.002588   0.000000   0.000000  -0.000777  -0.001143   0.257360
     9  C   -0.024667   0.000014  -0.000005  -0.000012   0.000004   0.000002
    10  C   -0.001418  -0.000006   0.000000   0.000000  -0.000001   0.000037
    11  C   -0.003026   0.000007   0.000000   0.000000   0.000000   0.000000
    12  H    0.000000  -0.000105   0.000168   0.000074  -0.000037   0.000000
    13  H    0.000000   0.000329   0.000010   0.000033   0.000000   0.000000
    14  H    0.000000   0.000066  -0.000022   0.000088   0.000046   0.000000
    15  H    0.000000   0.001839  -0.005492   0.000446  -0.006319   0.000000
    16  H    0.001616  -0.000411   0.000005  -0.002299   0.001939   0.003556
    17  H    0.000336  -0.001796  -0.002834   0.000000   0.000003  -0.000001
    18  H   -0.005953   0.002026  -0.001889   0.000006  -0.000525   0.000004
    19  H    0.657863   0.000008  -0.000033  -0.000026   0.000241   0.000849
    20  H    0.000008   0.644423  -0.023826  -0.000017  -0.000024  -0.000001
    21  H   -0.000033  -0.023826   0.639455  -0.000026  -0.000016   0.000000
    22  H   -0.000026  -0.000017  -0.000026   0.628987  -0.025082  -0.000027
    23  H    0.000241  -0.000024  -0.000016  -0.025082   0.654561   0.000689
    24  H    0.000849  -0.000001   0.000000  -0.000027   0.000689   0.610471
    25  H    0.001833   0.000034  -0.000012   0.000000   0.000000  -0.000001
    26  H   -0.000002   0.000000   0.000000   0.000000   0.000000  -0.000002
    27  H    0.000407   0.000000   0.000000   0.000000   0.000000  -0.000005
    28  H   -0.000001   0.000000   0.000000   0.000001   0.000000   0.000003
    29  H    0.000022   0.000000   0.000000   0.000000   0.000000   0.000000
    30  H    0.000408   0.000000   0.000000   0.000000   0.000000  -0.000001
    31  H    0.000008   0.000003   0.000001   0.000000   0.000000   0.000000
             25         26         27         28         29         30
     1  C    0.000000   0.000000   0.000000   0.000000   0.000000   0.000000
     2  C    0.000010   0.000000   0.000000   0.000000   0.000000   0.000000
     3  C   -0.001273   0.000027  -0.000032  -0.000925  -0.000012   0.000013
     4  C   -0.002101  -0.000012   0.000006   0.000003   0.000032   0.000062
     5  C   -0.023352   0.001072  -0.002156  -0.001126   0.001093  -0.002497
     6  C   -0.000073   0.000000   0.000000   0.000001   0.000000  -0.000001
     7  C    0.000001   0.000000  -0.000002   0.000011   0.000000   0.000000
     8  O    0.000008   0.000015  -0.000080  -0.000197   0.000000   0.000000
     9  C    0.379926  -0.019685  -0.020796  -0.019423  -0.019457  -0.020791
    10  C   -0.024444   0.382111   0.382121   0.383055  -0.003736  -0.001646
    11  C   -0.024045  -0.003778  -0.001660   0.001367   0.382575   0.381718
    12  H    0.000000   0.000000   0.000000   0.000000   0.000000   0.000000
    13  H    0.000000   0.000000   0.000000   0.000000   0.000000   0.000000
    14  H    0.000000   0.000000   0.000000   0.000000   0.000000   0.000000
    15  H    0.000000   0.000000   0.000000   0.000000   0.000000   0.000000
    16  H    0.000338  -0.000007   0.000037  -0.000632  -0.000001   0.000000
    17  H    0.000084  -0.000002   0.000001   0.000000  -0.000008   0.000051
    18  H    0.000004   0.000000   0.000000   0.000000   0.000001  -0.000014
    19  H    0.001833  -0.000002   0.000407  -0.000001   0.000022   0.000408
    20  H    0.000034   0.000000   0.000000   0.000000   0.000000   0.000000
    21  H   -0.000012   0.000000   0.000000   0.000000   0.000000   0.000000
    22  H    0.000000   0.000000   0.000000   0.000001   0.000000   0.000000
    23  H    0.000000   0.000000   0.000000   0.000000   0.000000   0.000000
    24  H   -0.000001  -0.000002  -0.000005   0.000003   0.000000  -0.000001
    25  H    0.654556  -0.001672   0.001889  -0.002799  -0.001602   0.001860
    26  H   -0.001672   0.635212  -0.021744  -0.022710  -0.000144   0.000007
    27  H    0.001889  -0.021744   0.627253  -0.020892   0.000007   0.000266
    28  H   -0.002799  -0.022710  -0.020892   0.623083   0.000061   0.000001
    29  H   -0.001602  -0.000144   0.000007   0.000061   0.630897  -0.021522
    30  H    0.001860   0.000007   0.000266   0.000001  -0.021522   0.631967
    31  H   -0.002677   0.000060   0.000001  -0.000039  -0.022802  -0.021791
             31
     1  C    0.000000
     2  C    0.000000
     3  C   -0.000001
     4  C   -0.001348
     5  C   -0.001052
     6  C    0.000020
     7  C    0.000000
     8  O    0.000000
     9  C   -0.019154
    10  C    0.001360
    11  C    0.382444
    12  H    0.000000
    13  H    0.000000
    14  H    0.000000
    15  H    0.000000
    16  H    0.000001
    17  H   -0.000954
    18  H   -0.000011
    19  H    0.000008
    20  H    0.000003
    21  H    0.000001
    22  H    0.000000
    23  H    0.000000
    24  H    0.000000
    25  H   -0.002677
    26  H    0.000060
    27  H    0.000001
    28  H   -0.000039
    29  H   -0.022802
    30  H   -0.021791
    31  H    0.633596
 Mulliken atomic charges:
              1
     1  C   -0.171131
     2  C   -0.024675
     3  C    0.075465
     4  C   -0.104269
     5  C   -0.038983
     6  C   -0.101583
     7  C   -0.114547
     8  O   -0.310974
     9  C   -0.018863
    10  C   -0.173000
    11  C   -0.173764
    12  H    0.053978
    13  H    0.052508
    14  H    0.053820
    15  H    0.047969
    16  H    0.058516
    17  H    0.055066
    18  H    0.046452
    19  H    0.041357
    20  H    0.048278
    21  H    0.051473
    22  H    0.059257
    23  H    0.042071
    24  H    0.175431
    25  H    0.043511
    26  H    0.051252
    27  H    0.055381
    28  H    0.061161
    29  H    0.054598
    30  H    0.051910
    31  H    0.052334
 Sum of Mulliken atomic charges =   0.00000
 Mulliken charges with hydrogens summed into heavy atoms:
              1
     1  C   -0.010825
     2  C    0.023294
     3  C    0.133981
     4  C   -0.002751
     5  C    0.002374
     6  C   -0.001832
     7  C   -0.013219
     8  O   -0.135543
     9  C    0.024648
    10  C   -0.005205
    11  C   -0.014921
 Sum of Mulliken charges with hydrogens summed into heavy atoms =   0.00000
 Electronic spatial extent (au):  <R**2>=           2108.2175
 Charge=              0.0000 electrons
 Dipole moment (field-independent basis, Debye):
    X=             -0.4815    Y=             -1.1333    Z=             -0.8885  Tot=              1.5184
 Quadrupole moment (field-independent basis, Debye-Ang):
   XX=            -68.1391   YY=            -71.9616   ZZ=            -64.9723
   XY=             -0.8843   XZ=             -0.0075   YZ=             -2.1923
 Traceless Quadrupole moment (field-independent basis, Debye-Ang):
   XX=              0.2186   YY=             -3.6039   ZZ=              3.3854
   XY=             -0.8843   XZ=             -0.0075   YZ=             -2.1923
 Octapole moment (field-independent basis, Debye-Ang**2):
  XXX=              1.4140  YYY=             -0.7282  ZZZ=             -6.5110  XYY=             -3.8432
  XXY=              4.3415  XXZ=             -1.9659  XZZ=              2.6306  YZZ=              9.9924
  YYZ=             -5.3942  XYZ=             -2.0432
 Hexadecapole moment (field-independent basis, Debye-Ang**3):
 XXXX=          -1744.2074 YYYY=           -681.9667 ZZZZ=           -284.0376 XXXY=              4.0328
 XXXZ=              9.3151 YYYX=             -0.3746 YYYZ=            -16.5915 ZZZX=              0.4085
 ZZZY=            -14.3726 XXYY=           -398.7523 XXZZ=           -338.4298 YYZZ=           -146.9774
 XXYZ=             -6.5453 YYXZ=             -3.2870 ZZXY=              4.4345
 N-N= 6.935050631662D+02 E-N=-2.458981608890D+03  KE= 4.555383200132D+02
 ******************************Gaussian NBO Version 3.1******************************
             N A T U R A L   A T O M I C   O R B I T A L   A N D
          N A T U R A L   B O N D   O R B I T A L   A N A L Y S I S
 ******************************Gaussian NBO Version 3.1******************************
       /RESON  / : Allow strongly delocalized NBO set
       /NLMO   / : Form Natural Localized Molecular Orbitals
       /NMR /    : Analyze NMR Sheilding Tensor 

 Analyzing the SCF density

 Job title: comment                                                         

 Storage needed:     19864 in NPA,     23691 in NBO,     45933 in NLMO (  33549317 available)


 NATURAL POPULATIONS:  Natural atomic orbital occupancies 
                                                          
   NAO  Atom  No  lang   Type(AO)    Occupancy      Energy
 ----------------------------------------------------------
     1    C    1  S      Cor( 1S)     1.99998     -10.96581
     2    C    1  S      Val( 2S)     1.08053      -0.18293
     3    C    1  px     Val( 2p)     1.01553       0.08385
     4    C    1  py     Val( 2p)     1.02730       0.08338
     5    C    1  pz     Val( 2p)     1.00283       0.08712

     6    C    2  S      Cor( 1S)     1.99997     -10.99031
     7    C    2  S      Val( 2S)     1.08081      -0.19421
     8    C    2  px     Val( 2p)     0.97090       0.10365
     9    C    2  py     Val( 2p)     0.95654       0.10919
    10    C    2  pz     Val( 2p)     0.97772       0.10465

    11    C    3  S      Cor( 1S)     1.99989     -11.03500
    12    C    3  S      Val( 2S)     1.08986      -0.21868
    13    C    3  px     Val( 2p)     0.93381       0.09906
    14    C    3  py     Val( 2p)     0.84295       0.12077
    15    C    3  pz     Val( 2p)     0.99173       0.07967

    16    C    4  S      Cor( 1S)     1.99995     -10.97601
    17    C    4  S      Val( 2S)     1.08518      -0.19128
    18    C    4  px     Val( 2p)     0.98870       0.09239
    19    C    4  py     Val( 2p)     0.99175       0.09671
    20    C    4  pz     Val( 2p)     1.00127       0.09157

    21    C    5  S      Cor( 1S)     1.99995     -10.99015
    22    C    5  S      Val( 2S)     1.10847      -0.21737
    23    C    5  px     Val( 2p)     0.96305       0.10262
    24    C    5  py     Val( 2p)     0.96192       0.10151
    25    C    5  pz     Val( 2p)     0.98253       0.09849

    26    C    6  S      Cor( 1S)     1.99996     -10.97592
    27    C    6  S      Val( 2S)     1.08360      -0.18997
    28    C    6  px     Val( 2p)     0.98038       0.09673
    29    C    6  py     Val( 2p)     0.99692       0.09121
    30    C    6  pz     Val( 2p)     1.00339       0.09340

    31    C    7  S      Cor( 1S)     1.99996     -10.97492
    32    C    7  S      Val( 2S)     1.09349      -0.19937
    33    C    7  px     Val( 2p)     0.99313       0.08629
    34    C    7  py     Val( 2p)     0.99638       0.09182
    35    C    7  pz     Val( 2p)     1.00869       0.08643

    36    O    8  S      Cor( 1S)     1.99999     -20.14122
    37    O    8  S      Val( 2S)     1.74957      -0.99762
    38    O    8  px     Val( 2p)     1.87899      -0.33055
    39    O    8  py     Val( 2p)     1.43882      -0.15328
    40    O    8  pz     Val( 2p)     1.26442      -0.08631

    41    C    9  S      Cor( 1S)     1.99996     -10.99005
    42    C    9  S      Val( 2S)     1.08784      -0.19729
    43    C    9  px     Val( 2p)     0.95181       0.11419
    44    C    9  py     Val( 2p)     0.96087       0.10947
    45    C    9  pz     Val( 2p)     0.97626       0.10789

    46    C   10  S      Cor( 1S)     1.99997     -10.95689
    47    C   10  S      Val( 2S)     1.08151      -0.17500
    48    C   10  px     Val( 2p)     1.01921       0.09218
    49    C   10  py     Val( 2p)     1.00312       0.09501
    50    C   10  pz     Val( 2p)     1.02587       0.09324

    51    C   11  S      Cor( 1S)     1.99997     -10.96284
    52    C   11  S      Val( 2S)     1.08178      -0.18132
    53    C   11  px     Val( 2p)     1.01088       0.08582
    54    C   11  py     Val( 2p)     1.01251       0.08987
    55    C   11  pz     Val( 2p)     1.02419       0.08558

    56    H   12  S      Val( 1S)     0.96339       0.07341

    57    H   13  S      Val( 1S)     0.96484       0.07280

    58    H   14  S      Val( 1S)     0.96361       0.07438

    59    H   15  S      Val( 1S)     0.97629       0.06509

    60    H   16  S      Val( 1S)     0.97665       0.05641

    61    H   17  S      Val( 1S)     0.96674       0.07587

    62    H   18  S      Val( 1S)     0.97413       0.06558

    63    H   19  S      Val( 1S)     0.98381       0.05679

    64    H   20  S      Val( 1S)     0.97249       0.06791

    65    H   21  S      Val( 1S)     0.96907       0.06904

    66    H   22  S      Val( 1S)     0.96159       0.07325

    67    H   23  S      Val( 1S)     0.97746       0.05958

    68    H   24  S      Val( 1S)     0.81234       0.07482

    69    H   25  S      Val( 1S)     0.98223       0.06482

    70    H   26  S      Val( 1S)     0.96584       0.07958

    71    H   27  S      Val( 1S)     0.96216       0.08426

    72    H   28  S      Val( 1S)     0.95727       0.09142

    73    H   29  S      Val( 1S)     0.96269       0.07653

    74    H   30  S      Val( 1S)     0.96542       0.07439

    75    H   31  S      Val( 1S)     0.96541       0.07901


 Summary of Natural Population Analysis:                  
                                                          
                                       Natural Population 
                Natural  -----------------------------------------------
    Atom  No    Charge         Core      Valence    Rydberg      Total
 -----------------------------------------------------------------------
      C    1   -0.12616      1.99998     4.12618    0.00000     6.12616
      C    2    0.01406      1.99997     3.98598    0.00000     5.98594
      C    3    0.14176      1.99989     3.85835    0.00000     5.85824
      C    4   -0.06684      1.99995     4.06689    0.00000     6.06684
      C    5   -0.01591      1.99995     4.01596    0.00000     6.01591
      C    6   -0.06426      1.99996     4.06429    0.00000     6.06426
      C    7   -0.09166      1.99996     4.09170    0.00000     6.09166
      O    8   -0.33179      1.99999     6.33180    0.00000     8.33179
      C    9    0.02326      1.99996     3.97678    0.00000     5.97674
      C   10   -0.12967      1.99997     4.12970    0.00000     6.12967
      C   11   -0.12934      1.99997     4.12938    0.00000     6.12934
      H   12    0.03661      0.00000     0.96339    0.00000     0.96339
      H   13    0.03516      0.00000     0.96484    0.00000     0.96484
      H   14    0.03639      0.00000     0.96361    0.00000     0.96361
      H   15    0.02371      0.00000     0.97629    0.00000     0.97629
      H   16    0.02335      0.00000     0.97665    0.00000     0.97665
      H   17    0.03326      0.00000     0.96674    0.00000     0.96674
      H   18    0.02587      0.00000     0.97413    0.00000     0.97413
      H   19    0.01619      0.00000     0.98381    0.00000     0.98381
      H   20    0.02751      0.00000     0.97249    0.00000     0.97249
      H   21    0.03093      0.00000     0.96907    0.00000     0.96907
      H   22    0.03841      0.00000     0.96159    0.00000     0.96159
      H   23    0.02254      0.00000     0.97746    0.00000     0.97746
      H   24    0.18766      0.00000     0.81234    0.00000     0.81234
      H   25    0.01777      0.00000     0.98223    0.00000     0.98223
      H   26    0.03416      0.00000     0.96584    0.00000     0.96584
      H   27    0.03784      0.00000     0.96216    0.00000     0.96216
      H   28    0.04273      0.00000     0.95727    0.00000     0.95727
      H   29    0.03731      0.00000     0.96269    0.00000     0.96269
      H   30    0.03458      0.00000     0.96542    0.00000     0.96542
      H   31    0.03459      0.00000     0.96541    0.00000     0.96541
 =======================================================================
   * Total *    0.00000     21.99955    66.00045    0.00000    88.00000

                                 Natural Population      
 --------------------------------------------------------
   Core                      21.99955 ( 99.9980% of  22)
   Valence                   66.00045 (100.0007% of  66)
   Natural Minimal Basis     88.00000 (100.0000% of  88)
   Natural Rydberg Basis      0.00000 (  0.0000% of  88)
 --------------------------------------------------------

    Atom  No          Natural Electron Configuration
 ----------------------------------------------------------------------------
      C    1      [core]2S( 1.08)2p( 3.05)
      C    2      [core]2S( 1.08)2p( 2.91)
      C    3      [core]2S( 1.09)2p( 2.77)
      C    4      [core]2S( 1.09)2p( 2.98)
      C    5      [core]2S( 1.11)2p( 2.91)
      C    6      [core]2S( 1.08)2p( 2.98)
      C    7      [core]2S( 1.09)2p( 3.00)
      O    8      [core]2S( 1.75)2p( 4.58)
      C    9      [core]2S( 1.09)2p( 2.89)
      C   10      [core]2S( 1.08)2p( 3.05)
      C   11      [core]2S( 1.08)2p( 3.05)
      H   12            1S( 0.96)
      H   13            1S( 0.96)
      H   14            1S( 0.96)
      H   15            1S( 0.98)
      H   16            1S( 0.98)
      H   17            1S( 0.97)
      H   18            1S( 0.97)
      H   19            1S( 0.98)
      H   20            1S( 0.97)
      H   21            1S( 0.97)
      H   22            1S( 0.96)
      H   23            1S( 0.98)
      H   24            1S( 0.81)
      H   25            1S( 0.98)
      H   26            1S( 0.97)
      H   27            1S( 0.96)
      H   28            1S( 0.96)
      H   29            1S( 0.96)
      H   30            1S( 0.97)
      H   31            1S( 0.97)


 NATURAL BOND ORBITAL ANALYSIS:

                       Occupancies       Lewis Structure    Low   High
           Occ.    -------------------  -----------------   occ   occ
  Cycle   Thresh.   Lewis   Non-Lewis     CR  BD  3C  LP    (L)   (NL)   Dev
 =============================================================================
   1(1)    1.90    87.64140   0.35860     11  31   0   2     0      0    0.02
 -----------------------------------------------------------------------------

 Structure accepted: No low occupancy Lewis orbitals

 --------------------------------------------------------
   Core                     21.99955 ( 99.998% of  22)
   Valence Lewis            65.64186 ( 99.457% of  66)
  ==================       ============================
   Total Lewis              87.64140 ( 99.593% of  88)
  -----------------------------------------------------
   Valence non-Lewis         0.35860 (  0.407% of  88)
   Rydberg non-Lewis         0.00000 (  0.000% of  88)
  ==================       ============================
   Total non-Lewis           0.35860 (  0.407% of  88)
 --------------------------------------------------------


       (Occupancy)   Bond orbital/ Coefficients/ Hybrids
 ---------------------------------------------------------------------------------
     1. (1.99031) BD ( 1) C   1 - C   2  
                ( 50.85%)   0.7131* C   1 s( 25.72%)p 2.89( 74.28%)
                                            0.0001  0.5071  0.4897 -0.1238 -0.6984
                ( 49.15%)   0.7011* C   2 s( 24.96%)p 3.01( 75.04%)
                                            0.0000  0.4996 -0.4673  0.1375  0.7163
     2. (1.99500) BD ( 1) C   1 - H  12  
                ( 51.84%)   0.7200* C   1 s( 24.76%)p 3.04( 75.24%)
                                            0.0000  0.4976 -0.3917 -0.7426  0.2183
                ( 48.16%)   0.6940* H  12 s(100.00%)
                                            1.0000
     3. (1.99512) BD ( 1) C   1 - H  13  
                ( 51.79%)   0.7197* C   1 s( 24.83%)p 3.03( 75.17%)
                                            0.0000  0.4983  0.4937  0.2676  0.6606
                ( 48.21%)   0.6943* H  13 s(100.00%)
                                            1.0000
     4. (1.99495) BD ( 1) C   1 - H  14  
                ( 51.83%)   0.7199* C   1 s( 24.70%)p 3.05( 75.30%)
                                            0.0000  0.4970 -0.6025  0.6014 -0.1682
                ( 48.17%)   0.6940* H  14 s(100.00%)
                                            1.0000
     5. (1.98531) BD ( 1) C   2 - C   6  
                ( 49.73%)   0.7052* C   2 s( 25.31%)p 2.95( 74.69%)
                                            0.0000  0.5031  0.5781 -0.6255  0.1463
                ( 50.27%)   0.7090* C   6 s( 25.27%)p 2.96( 74.73%)
                                            0.0001  0.5027 -0.5489  0.6530 -0.1399
     6. (1.98420) BD ( 1) C   2 - C   7  
                ( 49.35%)   0.7025* C   2 s( 25.23%)p 2.96( 74.77%)
                                            0.0000  0.5023  0.4080  0.7287 -0.2240
                ( 50.65%)   0.7117* C   7 s( 25.62%)p 2.90( 74.38%)
                                            0.0001  0.5062 -0.3828 -0.7262  0.2644
     7. (1.98627) BD ( 1) C   2 - H  15  
                ( 51.11%)   0.7149* C   2 s( 24.49%)p 3.08( 75.51%)
                                            0.0000  0.4949 -0.5300 -0.2425 -0.6445
                ( 48.89%)   0.6992* H  15 s(100.00%)
                                            1.0000
     8. (1.98200) BD ( 1) C   3 - C   5  
                ( 49.97%)   0.7069* C   3 s( 25.69%)p 2.89( 74.31%)
                                            0.0001  0.5068  0.5067 -0.6408 -0.2752
                ( 50.03%)   0.7073* C   5 s( 25.25%)p 2.96( 74.75%)
                                            0.0000  0.5025 -0.5219  0.6250  0.2907
     9. (1.98799) BD ( 1) C   3 - C   7  
                ( 49.32%)   0.7023* C   3 s( 25.53%)p 2.92( 74.47%)
                                            0.0000  0.5053 -0.7914 -0.0827 -0.3339
                ( 50.68%)   0.7119* C   7 s( 25.12%)p 2.98( 74.88%)
                                            0.0000  0.5012  0.7969  0.0507  0.3335
    10. (1.98755) BD ( 1) C   3 - O   8  
                ( 41.12%)   0.6413* C   3 s( 22.42%)p 3.46( 77.58%)
                                            0.0000  0.4734  0.3401  0.7632 -0.2788
                ( 58.88%)   0.7673* O   8 s( 16.52%)p 5.05( 83.48%)
                                            0.0000  0.4064 -0.3440 -0.8244  0.1921
    11. (1.98599) BD ( 1) C   3 - H  16  
                ( 51.29%)   0.7162* C   3 s( 26.36%)p 2.79( 73.64%)
                                            0.0000  0.5135 -0.0349  0.0103  0.8573
                ( 48.71%)   0.6979* H  16 s(100.00%)
                                            1.0000
    12. (1.98396) BD ( 1) C   4 - C   5  
                ( 50.44%)   0.7102* C   4 s( 25.42%)p 2.93( 74.58%)
                                            0.0001  0.5042  0.4583  0.7066  0.1910
                ( 49.56%)   0.7040* C   5 s( 25.19%)p 2.97( 74.81%)
                                            0.0000  0.5019 -0.4560 -0.7230 -0.1320
    13. (1.99034) BD ( 1) C   4 - C   6  
                ( 49.98%)   0.7070* C   4 s( 25.11%)p 2.98( 74.89%)
                                            0.0000  0.5011 -0.6853 -0.0552  0.5256
                ( 50.02%)   0.7072* C   6 s( 25.12%)p 2.98( 74.88%)
                                            0.0000  0.5012  0.6872  0.0804 -0.5197
    14. (1.98916) BD ( 1) C   4 - H  17  
                ( 51.67%)   0.7188* C   4 s( 25.29%)p 2.95( 74.71%)
                                            0.0000  0.5028  0.4939 -0.7036  0.0906
                ( 48.33%)   0.6952* H  17 s(100.00%)
                                            1.0000
    15. (1.99066) BD ( 1) C   4 - H  18  
                ( 51.28%)   0.7161* C   4 s( 24.18%)p 3.14( 75.82%)
                                            0.0000  0.4918 -0.2765  0.0512 -0.8241
                ( 48.72%)   0.6980* H  18 s(100.00%)
                                            1.0000
    16. (1.98032) BD ( 1) C   5 - C   9  
                ( 50.14%)   0.7081* C   5 s( 25.04%)p 2.99( 74.96%)
                                            0.0001  0.5004  0.6235 -0.1520  0.5812
                ( 49.86%)   0.7061* C   9 s( 25.29%)p 2.95( 74.71%)
                                            0.0001  0.5029 -0.6358  0.1618 -0.5628
    17. (1.98416) BD ( 1) C   5 - H  19  
                ( 50.72%)   0.7122* C   5 s( 24.52%)p 3.08( 75.48%)
                                            0.0000  0.4952  0.3618  0.2522 -0.7485
                ( 49.28%)   0.7020* H  19 s(100.00%)
                                            1.0000
    18. (1.99063) BD ( 1) C   6 - H  20  
                ( 51.41%)   0.7170* C   6 s( 24.76%)p 3.04( 75.24%)
                                            0.0000  0.4975  0.2611  0.0136  0.8271
                ( 48.59%)   0.6970* H  20 s(100.00%)
                                            1.0000
    19. (1.99035) BD ( 1) C   6 - H  21  
                ( 51.51%)   0.7177* C   6 s( 24.85%)p 3.02( 75.15%)
                                            0.0000  0.4985 -0.3979 -0.7529 -0.1619
                ( 48.49%)   0.6964* H  21 s(100.00%)
                                            1.0000
    20. (1.98927) BD ( 1) C   7 - H  22  
                ( 51.90%)   0.7204* C   7 s( 25.31%)p 2.95( 74.69%)
                                            0.0000  0.5031 -0.4639  0.6856  0.2482
                ( 48.10%)   0.6935* H  22 s(100.00%)
                                            1.0000
    21. (1.98985) BD ( 1) C   7 - H  23  
                ( 51.11%)   0.7149* C   7 s( 23.95%)p 3.18( 76.05%)
                                            0.0000  0.4894  0.0568 -0.0056 -0.8702
                ( 48.89%)   0.6992* H  23 s(100.00%)
                                            1.0000
    22. (1.98916) BD ( 1) O   8 - H  24  
                ( 59.43%)   0.7709* O   8 s( 16.84%)p 4.94( 83.16%)
                                            0.0000 -0.4104 -0.0151  0.0165  0.9116
                ( 40.57%)   0.6370* H  24 s(100.00%)
                                           -1.0000
    23. (1.98897) BD ( 1) C   9 - C  10  
                ( 49.30%)   0.7022* C   9 s( 25.15%)p 2.98( 74.85%)
                                            0.0000  0.5015  0.3990  0.7384  0.2096
                ( 50.70%)   0.7120* C  10 s( 25.70%)p 2.89( 74.30%)
                                            0.0001  0.5070 -0.4224 -0.7125 -0.2384
    24. (1.98925) BD ( 1) C   9 - C  11  
                ( 48.90%)   0.6993* C   9 s( 24.92%)p 3.01( 75.08%)
                                            0.0000  0.4992  0.5707 -0.5464 -0.3557
                ( 51.10%)   0.7148* C  11 s( 25.88%)p 2.86( 74.12%)
                                            0.0001  0.5087 -0.5919  0.5377  0.3190
    25. (1.98534) BD ( 1) C   9 - H  25  
                ( 50.82%)   0.7129* C   9 s( 24.64%)p 3.06( 75.36%)
                                            0.0000  0.4964 -0.3330 -0.3605  0.7161
                ( 49.18%)   0.7013* H  25 s(100.00%)
                                            1.0000
    26. (1.99423) BD ( 1) C  10 - H  26  
                ( 51.71%)   0.7191* C  10 s( 24.58%)p 3.07( 75.42%)
                                            0.0000  0.4958  0.6777 -0.2158  0.4983
                ( 48.29%)   0.6949* H  26 s(100.00%)
                                            1.0000
    27. (1.99562) BD ( 1) C  10 - H  27  
                ( 51.93%)   0.7207* C  10 s( 24.92%)p 3.01( 75.08%)
                                            0.0000  0.4992  0.2848  0.4211 -0.7016
                ( 48.07%)   0.6933* H  27 s(100.00%)
                                            1.0000
    28. (1.99504) BD ( 1) C  10 - H  28  
                ( 52.17%)   0.7223* C  10 s( 24.80%)p 3.03( 75.20%)
                                            0.0000  0.4979 -0.5303  0.5180  0.4500
                ( 47.83%)   0.6916* H  28 s(100.00%)
                                            1.0000
    29. (1.99428) BD ( 1) C  11 - H  29  
                ( 51.86%)   0.7201* C  11 s( 24.61%)p 3.06( 75.39%)
                                            0.0000  0.4960  0.6610 -0.0728  0.5583
                ( 48.14%)   0.6938* H  29 s(100.00%)
                                            1.0000
    30. (1.99551) BD ( 1) C  11 - H  30  
                ( 51.77%)   0.7195* C  11 s( 24.78%)p 3.04( 75.22%)
                                            0.0000  0.4978  0.2979  0.3050 -0.7553
                ( 48.23%)   0.6945* H  30 s(100.00%)
                                            1.0000
    31. (1.99405) BD ( 1) C  11 - H  31  
                ( 51.76%)   0.7194* C  11 s( 24.74%)p 3.04( 75.26%)
                                            0.0000  0.4974 -0.3520 -0.7826 -0.1271
                ( 48.24%)   0.6946* H  31 s(100.00%)
                                            1.0000
    32. (1.99997) CR ( 1) C   1           s(100.00%)
                                            1.0000  0.0000  0.0000  0.0000  0.0001
    33. (1.99997) CR ( 1) C   2           s(100.00%)
                                            1.0000  0.0000  0.0000  0.0000  0.0000
    34. (1.99989) CR ( 1) C   3           s(100.00%)
                                            1.0000  0.0000  0.0000  0.0001  0.0000
    35. (1.99995) CR ( 1) C   4           s(100.00%)
                                            1.0000  0.0000  0.0000  0.0000 -0.0001
    36. (1.99995) CR ( 1) C   5           s(100.00%)
                                            1.0000  0.0000  0.0000  0.0000  0.0000
    37. (1.99996) CR ( 1) C   6           s(100.00%)
                                            1.0000  0.0000  0.0000 -0.0001  0.0000
    38. (1.99996) CR ( 1) C   7           s(100.00%)
                                            1.0000  0.0000  0.0000  0.0001  0.0000
    39. (1.99999) CR ( 1) O   8           s(100.00%)
                                            1.0000  0.0000  0.0000  0.0000  0.0000
    40. (1.99996) CR ( 1) C   9           s(100.00%)
                                            1.0000  0.0000  0.0001  0.0000  0.0000
    41. (1.99997) CR ( 1) C  10           s(100.00%)
                                            1.0000  0.0000  0.0001  0.0001  0.0000
    42. (1.99997) CR ( 1) C  11           s(100.00%)
                                            1.0000  0.0000  0.0001  0.0000  0.0000
    43. (1.99350) LP ( 1) O   8           s( 66.64%)p 0.50( 33.36%)
                                            0.0000  0.8163  0.1739  0.4144  0.3628
    44. (1.97350) LP ( 2) O   8           s(  0.01%)p 1.00( 99.99%)
                                            0.0000  0.0090 -0.9226  0.3852 -0.0182
    45. (0.00967) BD*( 1) C   1 - C   2  
                ( 49.15%)   0.7011* C   1 s( 25.72%)p 2.89( 74.28%)
                                           -0.0001 -0.5071 -0.4897  0.1238  0.6984
                ( 50.85%)  -0.7131* C   2 s( 24.96%)p 3.01( 75.04%)
                                            0.0000 -0.4996  0.4673 -0.1375 -0.7163
    46. (0.00505) BD*( 1) C   1 - H  12  
                ( 48.16%)   0.6940* C   1 s( 24.76%)p 3.04( 75.24%)
                                            0.0000 -0.4976  0.3917  0.7426 -0.2183
                ( 51.84%)  -0.7200* H  12 s(100.00%)
                                           -1.0000
    47. (0.00592) BD*( 1) C   1 - H  13  
                ( 48.21%)   0.6943* C   1 s( 24.83%)p 3.03( 75.17%)
                                            0.0000 -0.4983 -0.4937 -0.2676 -0.6606
                ( 51.79%)  -0.7197* H  13 s(100.00%)
                                           -1.0000
    48. (0.00513) BD*( 1) C   1 - H  14  
                ( 48.17%)   0.6940* C   1 s( 24.70%)p 3.05( 75.30%)
                                            0.0000 -0.4970  0.6025 -0.6014  0.1682
                ( 51.83%)  -0.7199* H  14 s(100.00%)
                                           -1.0000
    49. (0.01619) BD*( 1) C   2 - C   6  
                ( 50.27%)   0.7090* C   2 s( 25.31%)p 2.95( 74.69%)
                                            0.0000  0.5031  0.5781 -0.6255  0.1463
                ( 49.73%)  -0.7052* C   6 s( 25.27%)p 2.96( 74.73%)
                                            0.0001  0.5027 -0.5489  0.6530 -0.1399
    50. (0.01633) BD*( 1) C   2 - C   7  
                ( 50.65%)   0.7117* C   2 s( 25.23%)p 2.96( 74.77%)
                                            0.0000  0.5023  0.4080  0.7287 -0.2240
                ( 49.35%)  -0.7025* C   7 s( 25.62%)p 2.90( 74.38%)
                                            0.0001  0.5062 -0.3828 -0.7262  0.2644
    51. (0.01007) BD*( 1) C   2 - H  15  
                ( 48.89%)   0.6992* C   2 s( 24.49%)p 3.08( 75.51%)
                                            0.0000 -0.4949  0.5300  0.2425  0.6445
                ( 51.11%)  -0.7149* H  15 s(100.00%)
                                           -1.0000
    52. (0.03336) BD*( 1) C   3 - C   5  
                ( 50.03%)   0.7073* C   3 s( 25.69%)p 2.89( 74.31%)
                                            0.0001  0.5068  0.5067 -0.6408 -0.2752
                ( 49.97%)  -0.7069* C   5 s( 25.25%)p 2.96( 74.75%)
                                            0.0000  0.5025 -0.5219  0.6250  0.2907
    53. (0.02610) BD*( 1) C   3 - C   7  
                ( 50.68%)   0.7119* C   3 s( 25.53%)p 2.92( 74.47%)
                                            0.0000  0.5053 -0.7914 -0.0827 -0.3339
                ( 49.32%)  -0.7023* C   7 s( 25.12%)p 2.98( 74.88%)
                                            0.0000  0.5012  0.7969  0.0507  0.3335
    54. (0.02156) BD*( 1) C   3 - O   8  
                ( 58.88%)   0.7673* C   3 s( 22.42%)p 3.46( 77.58%)
                                            0.0000  0.4734  0.3401  0.7632 -0.2788
                ( 41.12%)  -0.6413* O   8 s( 16.52%)p 5.05( 83.48%)
                                            0.0000  0.4064 -0.3440 -0.8244  0.1921
    55. (0.01819) BD*( 1) C   3 - H  16  
                ( 48.71%)   0.6979* C   3 s( 26.36%)p 2.79( 73.64%)
                                            0.0000 -0.5135  0.0349 -0.0103 -0.8573
                ( 51.29%)  -0.7162* H  16 s(100.00%)
                                           -1.0000
    56. (0.01651) BD*( 1) C   4 - C   5  
                ( 49.56%)   0.7040* C   4 s( 25.42%)p 2.93( 74.58%)
                                           -0.0001 -0.5042 -0.4583 -0.7066 -0.1910
                ( 50.44%)  -0.7102* C   5 s( 25.19%)p 2.97( 74.81%)
                                            0.0000 -0.5019  0.4560  0.7230  0.1320
    57. (0.01080) BD*( 1) C   4 - C   6  
                ( 50.02%)   0.7072* C   4 s( 25.11%)p 2.98( 74.89%)
                                            0.0000  0.5011 -0.6853 -0.0552  0.5256
                ( 49.98%)  -0.7070* C   6 s( 25.12%)p 2.98( 74.88%)
                                            0.0000  0.5012  0.6872  0.0804 -0.5197
    58. (0.01055) BD*( 1) C   4 - H  17  
                ( 48.33%)   0.6952* C   4 s( 25.29%)p 2.95( 74.71%)
                                            0.0000 -0.5028 -0.4939  0.7036 -0.0906
                ( 51.67%)  -0.7188* H  17 s(100.00%)
                                           -1.0000
    59. (0.00832) BD*( 1) C   4 - H  18  
                ( 48.72%)   0.6980* C   4 s( 24.18%)p 3.14( 75.82%)
                                            0.0000 -0.4918  0.2765 -0.0512  0.8241
                ( 51.28%)  -0.7161* H  18 s(100.00%)
                                           -1.0000
    60. (0.02174) BD*( 1) C   5 - C   9  
                ( 49.86%)   0.7061* C   5 s( 25.04%)p 2.99( 74.96%)
                                           -0.0001 -0.5004 -0.6235  0.1520 -0.5812
                ( 50.14%)  -0.7081* C   9 s( 25.29%)p 2.95( 74.71%)
                                           -0.0001 -0.5029  0.6358 -0.1618  0.5628
    61. (0.01186) BD*( 1) C   5 - H  19  
                ( 49.28%)   0.7020* C   5 s( 24.52%)p 3.08( 75.48%)
                                            0.0000 -0.4952 -0.3618 -0.2522  0.7485
                ( 50.72%)  -0.7122* H  19 s(100.00%)
                                           -1.0000
    62. (0.01038) BD*( 1) C   6 - H  20  
                ( 48.59%)   0.6970* C   6 s( 24.76%)p 3.04( 75.24%)
                                            0.0000 -0.4975 -0.2611 -0.0136 -0.8271
                ( 51.41%)  -0.7170* H  20 s(100.00%)
                                           -1.0000
    63. (0.00748) BD*( 1) C   6 - H  21  
                ( 48.49%)   0.6964* C   6 s( 24.85%)p 3.02( 75.15%)
                                            0.0000 -0.4985  0.3979  0.7529  0.1619
                ( 51.51%)  -0.7177* H  21 s(100.00%)
                                           -1.0000
    64. (0.00917) BD*( 1) C   7 - H  22  
                ( 48.10%)   0.6935* C   7 s( 25.31%)p 2.95( 74.69%)
                                            0.0000 -0.5031  0.4639 -0.6856 -0.2482
                ( 51.90%)  -0.7204* H  22 s(100.00%)
                                           -1.0000
    65. (0.00906) BD*( 1) C   7 - H  23  
                ( 48.89%)   0.6992* C   7 s( 23.95%)p 3.18( 76.05%)
                                            0.0000 -0.4894 -0.0568  0.0056  0.8702
                ( 51.11%)  -0.7149* H  23 s(100.00%)
                                           -1.0000
    66. (0.00889) BD*( 1) O   8 - H  24  
                ( 40.57%)   0.6370* O   8 s( 16.84%)p 4.94( 83.16%)
                                            0.0000  0.4104  0.0151 -0.0165 -0.9116
                ( 59.43%)  -0.7709* H  24 s(100.00%)
                                            1.0000
    67. (0.01014) BD*( 1) C   9 - C  10  
                ( 50.70%)   0.7120* C   9 s( 25.15%)p 2.98( 74.85%)
                                            0.0000  0.5015  0.3990  0.7384  0.2096
                ( 49.30%)  -0.7022* C  10 s( 25.70%)p 2.89( 74.30%)
                                            0.0001  0.5070 -0.4224 -0.7125 -0.2384
    68. (0.01023) BD*( 1) C   9 - C  11  
                ( 51.10%)   0.7148* C   9 s( 24.92%)p 3.01( 75.08%)
                                            0.0000  0.4992  0.5707 -0.5464 -0.3557
                ( 48.90%)  -0.6993* C  11 s( 25.88%)p 2.86( 74.12%)
                                            0.0001  0.5087 -0.5919  0.5377  0.3190
    69. (0.01157) BD*( 1) C   9 - H  25  
                ( 49.18%)   0.7013* C   9 s( 24.64%)p 3.06( 75.36%)
                                            0.0000 -0.4964  0.3330  0.3605 -0.7161
                ( 50.82%)  -0.7129* H  25 s(100.00%)
                                           -1.0000
    70. (0.00529) BD*( 1) C  10 - H  26  
                ( 48.29%)   0.6949* C  10 s( 24.58%)p 3.07( 75.42%)
                                            0.0000 -0.4958 -0.6777  0.2158 -0.4983
                ( 51.71%)  -0.7191* H  26 s(100.00%)
                                           -1.0000
    71. (0.00571) BD*( 1) C  10 - H  27  
                ( 48.07%)   0.6933* C  10 s( 24.92%)p 3.01( 75.08%)
                                            0.0000 -0.4992 -0.2848 -0.4211  0.7016
                ( 51.93%)  -0.7207* H  27 s(100.00%)
                                           -1.0000
    72. (0.00578) BD*( 1) C  10 - H  28  
[...]
   44       1.4534      -37.0793      38.5327       -38.4581      39.9116
 Sum      344.2647      -28.3154     372.5801       -34.3129     378.5775

 Contributions to Isotropic shielding for atom    9 (   212.6773 ppm):
                         Standard Origin              Atomic Origin
 NLMO      Total    Paramagnetic  Diamagnetic   Paramagnetic  Diamagnetic
   11      -0.2284       -0.5837       0.3553        -1.2111       0.9827
   14      -0.1978       -0.6132       0.4154        -1.0865       0.8887
   16       5.0292       -9.4320      14.4612        -2.7091       7.7384
   17       0.3808       -0.0606       0.4414        -0.6696       1.0504
   23      -1.2506       -5.8072       4.5565        -8.9255       7.6749
   24      -2.7144       -4.9760       2.2616       -10.1827       7.4682
   25       6.5286       -4.8003      11.3288        -4.3352      10.8638
   27       0.8582       -0.4028       1.2610        -0.2184       1.0766
   28       0.6970       -0.5872       1.2842        -0.3101       1.0071
   29       0.6712       -0.3289       1.0002        -0.3216       0.9929
   30       0.9858       -0.4186       1.4045        -0.0721       1.0580
   31       0.8202       -0.4602       1.2804        -0.1445       0.9647
   40     199.9183       -0.0003     199.9185         0.0007     199.9176
 Sum      211.4981      -28.4709     239.9690       -30.1858     241.6839

 Contributions to Isotropic shielding for atom   10 (   221.3098 ppm):
                         Standard Origin              Atomic Origin
 NLMO      Total    Paramagnetic  Diamagnetic   Paramagnetic  Diamagnetic
    8      -0.0928        0.0234      -0.1162        -1.0122       0.9193
   10       0.0527       -0.2078       0.2605        -1.1682       1.2209
   23       4.3632      -10.2180      14.5812        -3.4791       7.8424
   24      -0.5041        0.1390      -0.6430        -1.2566       0.7525
   25       0.3278       -0.2189       0.5467        -0.7096       1.0375
   26       4.7996        1.8473       2.9523        -6.2621      11.0617
   27       6.0483       -2.7722       8.8205        -5.1362      11.1845
   28       6.2632       -5.9975      12.2607        -4.9752      11.2383
   29      -0.2442       -1.0133       0.7691        -1.2074       0.9632
   41     200.0729       -0.0033     200.0762         0.0021     200.0708
 Sum      221.0866      -18.4213     239.5080       -25.2045     246.2911

 Contributions to Isotropic shielding for atom   11 (   221.1625 ppm):
                         Standard Origin              Atomic Origin
 NLMO      Total    Paramagnetic  Diamagnetic   Paramagnetic  Diamagnetic
   23      -0.5558        0.2385      -0.7943        -1.3300       0.7742
   24       4.9633      -11.6177      16.5810        -3.0905       8.0538
   25       0.2999       -0.1023       0.4021        -0.7137       1.0135
   26      -0.2182       -0.7273       0.5090        -1.1754       0.9572
   29       4.7355        1.7649       2.9706        -6.3821      11.1177
   30       5.5775       -2.8323       8.4097        -5.5347      11.1122
   31       6.0580       -3.7745       9.8325        -5.0289      11.0869
   42     200.0746       -0.0042     200.0789         0.0024     200.0722
 Sum      220.9348      -17.0549     237.9896       -23.2528     244.1876

 Contributions to Isotropic shielding for atom   12 (    32.4410 ppm):
                         Standard Origin              Atomic Origin
 NLMO      Total    Paramagnetic  Diamagnetic   Paramagnetic  Diamagnetic
    1       1.3305       -0.0378       1.3683         0.3417       0.9888
    2      26.3501        0.1229      26.2272         0.4407      25.9094
    3       2.0383        0.8776       1.1608         0.2031       1.8352
    4       1.8322        2.4289      -0.5967        -0.0010       1.8332
    5      -0.1151        0.5058      -0.6209        -1.0878       0.9727
 Sum       31.4360        3.8974      27.5386        -0.1033      31.5393

 Contributions to Isotropic shielding for atom   13 (    32.5746 ppm):
                         Standard Origin              Atomic Origin
 NLMO      Total    Paramagnetic  Diamagnetic   Paramagnetic  Diamagnetic
    1       1.7164       -1.4565       3.1729         0.8362       0.8801
    2       1.9659        1.2785       0.6874         0.1431       1.8228
    3      26.3194        0.3917      25.9277         0.3891      25.9303
    4       1.9328        1.2842       0.6486         0.1111       1.8217
   18      -0.2253       -0.0902      -0.1350        -1.0085       0.7833
 Sum       31.7092        1.4077      30.3016         0.4710      31.2382

 Contributions to Isotropic shielding for atom   14 (    32.4735 ppm):
                         Standard Origin              Atomic Origin
 NLMO      Total    Paramagnetic  Diamagnetic   Paramagnetic  Diamagnetic
    1       1.3226       -0.0014       1.3240         0.3495       0.9731
    2       1.9093        2.4859      -0.5766         0.0630       1.8463
    3       2.0134        0.8959       1.1175         0.1689       1.8445
    4      26.3856        0.1357      26.2499         0.4680      25.9176
    6      -0.1277        0.4720      -0.5996        -1.0134       0.8857
   20      -0.2040       -0.1632      -0.0407        -1.0008       0.7968
 Sum       31.2993        3.8249      27.4744        -0.9648      32.2640

 Contributions to Isotropic shielding for atom   15 (    32.4089 ppm):
                         Standard Origin              Atomic Origin
 NLMO      Total    Paramagnetic  Diamagnetic   Paramagnetic  Diamagnetic
    1       0.7752        2.4742      -1.6990        -0.2236       0.9988
    5       1.3462        0.9453       0.4009         0.4050       0.9411
    6       1.2528        0.9183       0.3345         0.2539       0.9989
    7      26.5206       -0.2904      26.8110         0.4744      26.0462
   19       0.0011       -0.0448       0.0459        -1.0768       1.0780
   21      -0.0940       -0.0557      -0.0383        -1.2350       1.1411
 Sum       29.8019        3.9470      25.8549        -1.4021      31.2040

 Contributions to Isotropic shielding for atom   16 (    31.6306 ppm):
                         Standard Origin              Atomic Origin
 NLMO      Total    Paramagnetic  Diamagnetic   Paramagnetic  Diamagnetic
    3      -0.2254       -1.0972       0.8718        -0.7796       0.5542
    8       1.1706       -0.1069       1.2775         0.2685       0.9022
   10       1.0121        0.5337       0.4784        -1.0030       2.0151
   11      26.2781        0.4974      25.7807         0.7032      25.5748
   16      -0.0899       -0.3509       0.2609        -1.1625       1.0725
   28      -0.3296       -1.3067       0.9771        -0.8854       0.5559
 Sum       27.8159       -1.8306      29.6464        -2.8588      30.6747

 Contributions to Isotropic shielding for atom   17 (    32.5036 ppm):
                         Standard Origin              Atomic Origin
 NLMO      Total    Paramagnetic  Diamagnetic   Paramagnetic  Diamagnetic
   12       1.3864        0.3855       1.0009         0.5213       0.8651
   13       1.0489        1.1233      -0.0744         0.0198       1.0291
   14      26.3846        0.0433      26.3414         0.4799      25.9047
   15       2.0463        1.6170       0.4293         0.2517       1.7946
   16      -0.1408        0.0180      -0.1588        -1.2301       1.0893
   19       0.1742       -0.2544       0.4286        -0.8374       1.0117
   24      -0.0193       -0.5504       0.5311        -1.1053       1.0860
   31      -0.4554       -1.9412       1.4858        -0.9460       0.4906
 Sum       30.4250        0.4411      29.9839        -2.8460      33.2710

 Contributions to Isotropic shielding for atom   18 (    32.6001 ppm):
                         Standard Origin              Atomic Origin
 NLMO      Total    Paramagnetic  Diamagnetic   Paramagnetic  Diamagnetic
   12       1.4100        0.3009       1.1091         0.3782       1.0318
   13       1.1011        1.0132       0.0879         0.1555       0.9456
   14       1.9854        1.5933       0.3921         0.1649       1.8205
   15      26.4882        0.0189      26.4693         0.4103      26.0779
   17      -0.0700       -0.2284       0.1584        -1.1842       1.1142
 Sum       30.9147        2.6978      28.2169        -0.0752      30.9899

 Contributions to Isotropic shielding for atom   19 (    33.0952 ppm):
                         Standard Origin              Atomic Origin
 NLMO      Total    Paramagnetic  Diamagnetic   Paramagnetic  Diamagnetic
    8       1.3144        0.8719       0.4424         0.4091       0.9053
   10      -0.1281       -0.2609       0.1327        -1.4332       1.3051
   12       1.0888        0.9646       0.1242         0.0044       1.0844
   15      -0.0198       -0.6291       0.6092        -1.1489       1.1291
   16       1.0241        1.4007      -0.3766        -0.0631       1.0872
   17      26.6056        0.0103      26.5954         0.4680      26.1376
   22      -0.0355       -1.0718       1.0363        -0.8218       0.7862
   27      -0.0666       -1.0622       0.9955        -0.9392       0.8726
   30      -0.0790       -1.4377       1.3587        -0.9802       0.9012
 Sum       29.7037       -1.2141      30.9178        -4.5049      34.2086

 Contributions to Isotropic shielding for atom   20 (    32.9642 ppm):
                         Standard Origin              Atomic Origin
 NLMO      Total    Paramagnetic  Diamagnetic   Paramagnetic  Diamagnetic
    1      -0.0929       -0.6764       0.5836        -1.1845       1.0916
    3      -0.0299       -1.0611       1.0313        -0.9750       0.9451
    5       1.3365        0.5392       0.7973         0.5589       0.7777
   13       1.3834       -0.2213       1.6046         0.4561       0.9273
   18      26.3987        0.2473      26.1514         0.4058      25.9929
   19       1.9685        1.6961       0.2724         0.1929       1.7756
 Sum       30.9644        0.5238      30.4406        -0.5458      31.5102

 Contributions to Isotropic shielding for atom   21 (    32.4216 ppm):
                         Standard Origin              Atomic Origin
 NLMO      Total    Paramagnetic  Diamagnetic   Paramagnetic  Diamagnetic
    2      -0.0693       -1.0458       0.9765        -0.9182       0.8489
    5       0.9536        1.4604      -0.5068        -0.0122       0.9658
    7       0.0396       -0.2988       0.3384        -1.0032       1.0428
   13       1.1727        0.9348       0.2379         0.2089       0.9638
   14       0.1705        0.0924       0.0781        -0.8559       1.0264
   18       2.0968        1.2644       0.8324         0.3251       1.7716
   19      26.4152       -0.0797      26.4949         0.4590      25.9562
 Sum       30.7791        2.3277      28.4514        -1.7964      32.5756

 Contributions to Isotropic shielding for atom   22 (    32.1967 ppm):
                         Standard Origin              Atomic Origin
 NLMO      Total    Paramagnetic  Diamagnetic   Paramagnetic  Diamagnetic
    1      -0.1546       -0.3166       0.1620        -1.2543       1.0997
    4      -0.0587       -1.3299       1.2712        -0.9880       0.9293
    6       1.0047        1.2032      -0.1985         0.1379       0.8668
    9       1.2726        0.4277       0.8449         0.3903       0.8822
   10      -0.1249        0.2025      -0.3274        -1.5031       1.3782
   20      26.1945        0.0450      26.1495         0.4895      25.7050
   21       2.0109        1.6463       0.3646         0.1978       1.8130
 Sum       30.1444        1.8781      28.2664        -2.5297      32.6742

 Contributions to Isotropic shielding for atom   23 (    32.8100 ppm):
                         Standard Origin              Atomic Origin
 NLMO      Total    Paramagnetic  Diamagnetic   Paramagnetic  Diamagnetic
    6       1.1234        0.7286       0.3948         0.1491       0.9743
    7      -0.0191       -0.6827       0.6635        -1.1260       1.1069
    9       1.4292        0.1241       1.3051         0.5826       0.8466
   10      -0.1690        0.2090      -0.3780        -1.2335       1.0645
   20       1.9362        1.7019       0.2343         0.0407       1.8955
   21      26.5740        0.0798      26.4942         0.4034      26.1706
 Sum       30.8747        2.1608      28.7139        -1.1837      32.0584

 Contributions to Isotropic shielding for atom   24 (    35.3601 ppm):
                         Standard Origin              Atomic Origin
 NLMO      Total    Paramagnetic  Diamagnetic   Paramagnetic  Diamagnetic
    9      -0.1727        0.3554      -0.5281        -1.1024       0.9297
   10       1.9041        1.5012       0.4029         1.2937       0.6103
   22      23.0508       -0.3302      23.3811        -0.1336      23.1844
   43       3.9265        1.4474       2.4791         1.9797       1.9468
   44       5.4821        2.3944       3.0878         2.3379       3.1442
 Sum       34.1908        5.3682      28.8227         4.3754      29.8155

 Contributions to Isotropic shielding for atom   25 (    32.6785 ppm):
                         Standard Origin              Atomic Origin
 NLMO      Total    Paramagnetic  Diamagnetic   Paramagnetic  Diamagnetic
   16       1.6967       -0.4704       2.1671         0.7477       0.9490
   23       1.0502        1.1669      -0.1167         0.0323       1.0179
   24       0.9129        1.5583      -0.6454        -0.0589       0.9718
   25      26.5268        0.1497      26.3771         0.3735      26.1533
   28       0.2133       -0.8012       1.0146        -0.7581       0.9714
   31       0.2414       -0.8783       1.1197        -0.6972       0.9385
 Sum       30.6414        0.7251      29.9163        -0.3606      31.0019

 Contributions to Isotropic shielding for atom   26 (    32.5133 ppm):
                         Standard Origin              Atomic Origin
 NLMO      Total    Paramagnetic  Diamagnetic   Paramagnetic  Diamagnetic
   23       1.2331        0.4619       0.7712         0.2647       0.9684
   24      -0.2092        0.6160      -0.8252        -1.2938       1.0846
   26      26.4249        0.0097      26.4152         0.4466      25.9783
   27       1.9612        1.9816      -0.0205         0.1025       1.8587
   28       2.0212        1.4122       0.6090         0.1225       1.8987
   29      -0.1518       -1.2119       1.0601        -1.0209       0.8691
 Sum       31.2794        3.2695      28.0099        -1.3785      32.6579

 Contributions to Isotropic shielding for atom   27 (    32.3841 ppm):
                         Standard Origin              Atomic Origin
 NLMO      Total    Paramagnetic  Diamagnetic   Paramagnetic  Diamagnetic
   23       1.4188       -0.4107       1.8296         0.4822       0.9367
   26       1.8967        2.2283      -0.3316         0.0872       1.8096
   27      26.2654        0.2410      26.0244         0.4151      25.8503
   28       2.0935        0.6378       1.4557         0.2805       1.8129
 Sum       31.6744        2.6964      28.9780         1.2649      30.4095

 Contributions to Isotropic shielding for atom   28 (    32.0115 ppm):
                         Standard Origin              Atomic Origin
 NLMO      Total    Paramagnetic  Diamagnetic   Paramagnetic  Diamagnetic
    8      -0.0854        0.0213      -0.1067        -1.0619       0.9765
   10       0.0783       -0.2192       0.2975        -1.3675       1.4459
   11      -0.2308       -0.0570      -0.1738        -1.0012       0.7704
   23       1.5389       -1.0685       2.6074         0.5499       0.9890
   26       1.8442        1.6331       0.2112        -0.0503       1.8945
   27       2.0513        0.7571       1.2942         0.2139       1.8374
   28      26.1588        0.3153      25.8435         0.3962      25.7626
   43      -0.4197        0.0681      -0.4877         0.6086      -1.0283
 Sum       30.9357        1.4502      29.4855        -1.7123      32.6480

 Contributions to Isotropic shielding for atom   29 (    32.4852 ppm):
                         Standard Origin              Atomic Origin
 NLMO      Total    Paramagnetic  Diamagnetic   Paramagnetic  Diamagnetic
   23      -0.2271        0.8124      -1.0395        -1.3169       1.0898
   24       1.3554        0.0751       1.2803         0.3422       1.0132
   26      -0.1510       -0.8364       0.6854        -1.0188       0.8678
   29      26.3442        0.0106      26.3336         0.4529      25.8913
   30       1.9119        1.9817      -0.0698         0.0657       1.8462
   31       1.9576        1.7648       0.1928         0.0733       1.8844
 Sum       31.1910        3.8082      27.3827        -1.4016      32.5926

 Contributions to Isotropic shielding for atom   30 (    32.6757 ppm):
                         Standard Origin              Atomic Origin
 NLMO      Total    Paramagnetic  Diamagnetic   Paramagnetic  Diamagnetic
   24       1.5613       -0.7413       2.3026         0.5981       0.9632
   29       1.8995        2.2659      -0.3665         0.0860       1.8135
   30      26.3702        0.2452      26.1250         0.4312      25.9391
   31       2.0235        1.0728       0.9507         0.2169       1.8066
 Sum       31.8545        2.8427      29.0118         1.3321      30.5224

 Contributions to Isotropic shielding for atom   31 (    32.3845 ppm):
                         Standard Origin              Atomic Origin
 NLMO      Total    Paramagnetic  Diamagnetic   Paramagnetic  Diamagnetic
   12      -0.0998        0.1915      -0.2913        -1.1295       1.0297
   24       1.5438       -1.1091       2.6529         0.5442       0.9996
   29       1.8345        1.9416      -0.1072        -0.0715       1.9060
   30       1.9863        1.0657       0.9206         0.1435       1.8427
   31      26.3953        0.2244      26.1709         0.3984      25.9968
 Sum       31.6601        2.3142      29.3459        -0.1148      31.7748
 
 1\1\GINC-COMPUTE-9-5\SP\RHF\STO-3G\C10H20O1\YTSAI.IQUIR\03-Aug-2021\0\
 \# rhf/STO-3G nmr pop=nbo\\comment\\0,1\C,0,-0.234275854,-1.363863813,
 -3.078670647\C,0,-1.02298939,-1.183313606,-1.78111138\C,0,0.558970068,
 -1.046605912,0.205485593\C,0,-1.420812,0.550489557,0.018755571\C,0,-0.
 18628666,0.146778756,0.863283868\C,0,-1.203521455,0.311275241,-1.47207
 7791\C,0,-0.370654891,-1.940603889,-0.615278495\O,0,1.180574841,-1.847
 607649,1.209865177\C,0,0.765630491,1.358633022,1.139852665\C,0,2.06359
 4783,0.954073752,1.852750276\C,0,0.084733091,2.443896714,1.988969486\H
 ,0,-0.722108921,-0.836653206,-3.905395564\H,0,0.785913359,-0.97715598,
 -2.983362126\H,0,-0.170108514,-2.422949945,-3.349855733\H,0,-2.0153459
 66,-1.625218961,-1.942473036\H,0,1.356666538,-0.679819604,-0.451101531
 \H,0,-1.708327139,1.592280676,0.176117346\H,0,-2.282245841,-0.04640717
 3,0.347317999\H,0,-0.561255681,-0.178673463,1.844395689\H,0,-0.3308078
 02,0.887435403,-1.804690279\H,0,-2.060984843,0.694601784,-2.038311429\
 H,0,0.167707768,-2.828744019,-0.969171544\H,0,-1.155623173,-2.33304373
 2,0.046135987\H,0,0.481016869,-2.203925706,1.783624462\H,0,1.044277497
 ,1.809971697,0.178790561\H,0,2.666193011,1.836263374,2.09646045\H,0,1.
 853165427,0.423232192,2.787269662\H,0,2.688590785,0.315071441,1.222284
 362\H,0,0.789132797,3.248032825,2.229982633\H,0,-0.287293089,2.0304998
 01,2.932574101\H,0,-0.753526106,2.912050424,1.467583664\\Version=EM64L
 -G09RevC.01\State=1-A\HF=-459.6116887\RMSD=6.887e-09\Dipole=-0.582617,
 0.1032299,-0.0823377\Quadrupole=-1.2041342,0.3152721,0.8888621,2.40588
 92,-1.6457829,-0.4390549\PG=C01 [X(C10H20O1)]\\@


 Life may have no meaning.  Or even worse, it may have a
 meaning of which I disapprove.
                                 -- Ashleigh Brilliant
 Job cpu time:  0 days  0 hours  0 minutes 24.4 seconds.
 File lengths (MBytes):  RWF=      5 Int=      0 D2E=      0 Chk=      1 Scr=      1
 Normal termination of Gaussian 09 at Tue Aug  3 16:37:13 2021.
