 Entering Gaussian System, Link 0=g09
 Input=/home/ytsai.iquir/menthol/03_menthol_M0124_MMFF_NMR_rhf_STO-3G_nbo.gjc
 Output=/home/ytsai.iquir/menthol/03_menthol_M0124_MMFF_NMR_rhf_STO-3G_nbo.log
 Initial command:
 /share/apps/Gaussian09/EM64T.SSE4.2-enabled/g09/l1.exe /tmp/Gau-31725.inp -scrdir=/tmp/
 Entering Link 1 = /share/apps/Gaussian09/EM64T.SSE4.2-enabled/g09/l1.exe PID=     31726.
  
 Copyright (c) 1988,1990,1992,1993,1995,1998,2003,2009,2011,
            Gaussian, Inc.  All Rights Reserved.
  
 This is part of the Gaussian(R) 09 program.  It is based on
 the Gaussian(R) 03 system (copyright 2003, Gaussian, Inc.),
 the Gaussian(R) 98 system (copyright 1998, Gaussian, Inc.),
 the Gaussian(R) 94 system (copyright 1995, Gaussian, Inc.),
 the Gaussian 92(TM) system (copyright 1992, Gaussian, Inc.),
 the Gaussian 90(TM) system (copyright 1990, Gaussian, Inc.),
 the Gaussian 88(TM) system (copyright 1988, Gaussian, Inc.),
 the Gaussian 86(TM) system (copyright 1986, Carnegie Mellon
 University), and the Gaussian 82(TM) system (copyright 1983,
 Carnegie Mellon University). Gaussian is a federally registered
 trademark of Gaussian, Inc.
  
 This software contains proprietary and confidential information,
 including trade secrets, belonging to Gaussian, Inc.
  
 This software is provided under written license and may be
 used, copied, transmitted, or stored only in accord with that
 written license.
  
 The following legend is applicable only to US Government
 contracts under FAR:
  
                    RESTRICTED RIGHTS LEGEND
  
 Use, reproduction and disclosure by the US Government is
 subject to restrictions as set forth in subparagraphs (a)
 and (c) of the Commercial Computer Software - Restricted
 Rights clause in FAR 52.227-19.
  
 Gaussian, Inc.
 340 Quinnipiac St., Bldg. 40, Wallingford CT 06492
  
  
 ---------------------------------------------------------------
 Warning -- This program may not be used in any manner that
 competes with the business of Gaussian, Inc. or will provide
 assistance to any competitor of Gaussian, Inc.  The licensee
 of this program is prohibited from giving any competitor of
 Gaussian, Inc. access to this program.  By using this program,
 the user acknowledges that Gaussian, Inc. is engaged in the
 business of creating and licensing software in the field of
 computational chemistry and represents and warrants to the
 licensee that it is not a competitor of Gaussian, Inc. and that
 it will not use this program in any manner prohibited above.
 ---------------------------------------------------------------
  

 Cite this work as:
 Gaussian 09, Revision C.01,
 M. J. Frisch, G. W. Trucks, H. B. Schlegel, G. E. Scuseria, 
 M. A. Robb, J. R. Cheeseman, G. Scalmani, V. Barone, B. Mennucci, 
 G. A. Petersson, H. Nakatsuji, M. Caricato, X. Li, H. P. Hratchian, 
 A. F. Izmaylov, J. Bloino, G. Zheng, J. L. Sonnenberg, M. Hada, 
 M. Ehara, K. Toyota, R. Fukuda, J. Hasegawa, M. Ishida, T. Nakajima, 
 Y. Honda, O. Kitao, H. Nakai, T. Vreven, J. A. Montgomery, Jr., 
 J. E. Peralta, F. Ogliaro, M. Bearpark, J. J. Heyd, E. Brothers, 
 K. N. Kudin, V. N. Staroverov, T. Keith, R. Kobayashi, J. Normand, 
 K. Raghavachari, A. Rendell, J. C. Burant, S. S. Iyengar, J. Tomasi, 
 M. Cossi, N. Rega, J. M. Millam, M. Klene, J. E. Knox, J. B. Cross, 
 V. Bakken, C. Adamo, J. Jaramillo, R. Gomperts, R. E. Stratmann, 
 O. Yazyev, A. J. Austin, R. Cammi, C. Pomelli, J. W. Ochterski, 
 R. L. Martin, K. Morokuma, V. G. Zakrzewski, G. A. Voth, 
 P. Salvador, J. J. Dannenberg, S. Dapprich, A. D. Daniels, 
 O. Farkas, J. B. Foresman, J. V. Ortiz, J. Cioslowski, 
 and D. J. Fox, Gaussian, Inc., Wallingford CT, 2010.
 
 ******************************************
 Gaussian 09:  EM64L-G09RevC.01 23-Sep-2011
                 3-Aug-2021 
 ******************************************
 %nprocshared=4
 Will use up to    4 processors via shared memory.
 ------------------------
 # rhf/STO-3G nmr pop=nbo
 ------------------------
 1/38=1/1;
 2/12=2,17=6,18=5,40=1/2;
 3/6=3,11=1,16=1,25=1,30=1,116=1/1,2,8,3;
 4//1;
 5/5=2,38=5/2;
 8/6=1,10=90,11=11/1;
 10/13=100,45=16/2;
 6/7=2,8=2,9=2,10=2,28=1,64=1/1,7;
 99/9=1/99;
 -------
 comment
 -------
 Charge =  0 Multiplicity = 1
 Symbolic Z-Matrix:
 6                    -1.84991  -0.4109   -3.21754 
 6                    -1.28193  -0.29498  -1.80486 
 6                     0.90798  -0.74802  -0.52968 
 6                    -0.43145   1.30004  -0.02035 
 6                     0.16825   0.01136   0.59676 
 6                    -0.92131   1.1493   -1.4661 
 6                    -0.06471  -1.21367  -1.62528 
 8                     1.60907  -1.89601  -0.0769 
 6                     1.0354    0.29205   1.8672 
 6                     1.13708  -0.94143   2.78052 
 6                     0.49511   1.44369   2.7306 
 1                    -2.119    -1.44813  -3.44326 
 1                    -2.75192   0.20083  -3.3242 
 1                    -1.12499  -0.07664  -3.9675 
 1                    -2.06587  -0.62237  -1.1085 
 1                     1.65042  -0.07855  -0.98427 
 1                     0.30704   2.11101  -0.00695 
 1                    -1.27338   1.62924   0.60145 
 1                    -0.67094  -0.6185    0.92648 
 1                    -0.13408   1.4974   -2.14809 
 1                    -1.77983   1.81256  -1.6266 
 1                     0.50045  -1.29814  -2.56319 
 1                    -0.41825  -2.23204  -1.41491 
 1                     2.44435  -1.59065   0.3161 
 1                     2.04812   0.56797   1.54672 
 1                     0.1457   -1.2592    3.12218 
 1                     1.61106  -1.79468   2.29459 
 1                     1.73765  -0.71479   3.66887 
 1                    -0.54596   1.26622   3.02117 
 1                     0.55057   2.40308   2.20815 
 1                     1.08527   1.55395   3.6474 
 
                          Input orientation:                          
 ---------------------------------------------------------------------
 Center     Atomic      Atomic             Coordinates (Angstroms)
 Number     Number       Type             X           Y           Z
 ---------------------------------------------------------------------
      1          6           0       -1.849908   -0.410899   -3.217543
      2          6           0       -1.281931   -0.294984   -1.804862
      3          6           0        0.907982   -0.748019   -0.529683
      4          6           0       -0.431453    1.300039   -0.020351
      5          6           0        0.168250    0.011357    0.596763
      6          6           0       -0.921308    1.149299   -1.466098
      7          6           0       -0.064714   -1.213673   -1.625283
      8          8           0        1.609071   -1.896006   -0.076895
      9          6           0        1.035405    0.292050    1.867203
     10          6           0        1.137079   -0.941429    2.780521
     11          6           0        0.495112    1.443685    2.730598
     12          1           0       -2.118997   -1.448134   -3.443255
     13          1           0       -2.751923    0.200830   -3.324200
     14          1           0       -1.124993   -0.076638   -3.967502
     15          1           0       -2.065868   -0.622366   -1.108504
     16          1           0        1.650420   -0.078548   -0.984273
     17          1           0        0.307038    2.111009   -0.006951
     18          1           0       -1.273378    1.629236    0.601450
     19          1           0       -0.670940   -0.618499    0.926482
     20          1           0       -0.134079    1.497397   -2.148093
     21          1           0       -1.779831    1.812560   -1.626605
     22          1           0        0.500452   -1.298140   -2.563190
     23          1           0       -0.418247   -2.232041   -1.414907
     24          1           0        2.444346   -1.590652    0.316097
     25          1           0        2.048121    0.567974    1.546722
     26          1           0        0.145704   -1.259200    3.122183
     27          1           0        1.611056   -1.794678    2.294591
     28          1           0        1.737649   -0.714785    3.668869
     29          1           0       -0.545961    1.266222    3.021172
     30          1           0        0.550574    2.403083    2.208146
     31          1           0        1.085273    1.553948    3.647398
 ---------------------------------------------------------------------
                    Distance matrix (angstroms):
                    1          2          3          4          5
     1  C    0.000000
     2  C    1.526991   0.000000
     3  C    3.865774   2.574304   0.000000
     4  C    3.893760   2.540058   2.499609   0.000000
     5  C    4.335919   2.822175   1.546846   1.549572   0.000000
     6  C    2.522712   1.526684   2.796961   1.533905   2.595658
     7  C    2.523224   1.535530   1.537307   3.004838   2.548030
     8  O    4.902423   3.729214   1.419302   3.792313   2.483509
     9  C    5.888447   4.381634   2.615920   2.594334   1.563574
    10  C    6.721632   5.224485   3.323754   3.915272   2.572009
    11  C    6.657251   5.172161   3.950121   2.906351   2.590687
    12  H    1.095085   2.171351   4.259304   4.702822   4.866555
    13  H    1.095088   2.171427   4.701548   4.184288   4.892572
    14  H    1.095294   2.179292   4.049981   4.237480   4.744758
    15  H    2.130588   1.098477   3.032261   2.747914   2.881115
    16  H    4.165363   3.052686   1.098207   2.676535   2.169005
    17  H    4.617395   3.397957   2.967899   1.096914   2.189126
    18  H    4.367980   3.081077   3.418938   1.097199   2.166991
    19  H    4.313468   2.817483   2.151786   2.152820   1.099851
    20  H    2.780177   2.155922   2.957538   2.157468   3.135913
    21  H    2.734916   2.172884   3.870935   2.158901   3.461605
    22  H    2.596068   2.181346   2.145662   3.753000   3.436632
    23  H    2.935254   2.156434   2.178263   3.797440   3.069793
    24  H    5.684985   4.479103   1.945710   4.091394   2.797466
    25  H    6.233061   4.802818   2.709836   3.023230   2.178569
    26  H    6.700315   5.219543   3.765435   4.093695   2.827114
    27  H    6.654077   5.236790   3.092948   4.371278   2.868113
    28  H    7.770817   6.265447   4.279870   4.730207   3.525356
    29  H    6.590492   5.125390   4.333553   3.043866   2.821798
    30  H    6.566499   5.171255   4.189616   2.673440   2.909138
    31  H    7.720320   6.224898   4.772682   3.977098   3.539336
                    6          7          8          9         10
     6  C    0.000000
     7  C    2.518477   0.000000
     8  O    4.196020   2.380051   0.000000
     9  C    3.959103   3.959156   2.982650   0.000000
    10  C    5.161577   4.574881   3.049398   1.538167   0.000000
    11  C    4.439050   5.133094   4.502939   1.537410   2.470502
    12  H    3.477106   2.753193   5.042962   6.417122   7.042313
    13  H    2.775480   3.479688   5.827519   6.426728   7.327804
    14  H    2.793104   2.811233   5.091368   6.232739   7.169425
    15  H    2.139319   2.149726   4.023873   4.394187   5.048286
    16  H    2.890250   2.154318   2.031797   2.940493   3.896378
    17  H    2.136078   3.716276   4.213829   2.711380   4.216201
    18  H    2.151522   3.808062   4.603912   2.953080   4.143305
    19  H    2.985336   2.689469   2.799508   2.150737   2.609728
    20  H    1.098189   2.761890   4.340923   4.352373   5.644019
    21  H    1.096694   3.478464   5.257349   4.737530   5.959495
    22  H    3.035617   1.098279   2.787138   4.737431   5.393309
    23  H    3.418941   1.098325   2.452185   4.388210   4.656859
    24  H    4.691607   3.194754   0.972300   2.817021   2.864232
    25  H    4.269957   4.207132   2.983303   1.097468   2.151872
    26  H    5.290719   4.752345   3.575062   2.184701   1.095689
    27  H    5.405797   4.302462   2.373651   2.206460   1.090329
    28  H    6.075586   5.614753   3.929703   2.180107   1.095999
    29  H    4.504459   5.288764   4.923604   2.186635   2.786442
    30  H    4.151925   5.306098   4.982368   2.192661   3.443451
    31  H    5.507990   6.064929   5.103618   2.182652   2.642170
                   11         12         13         14         15
    11  C    0.000000
    12  H    7.301551   0.000000
    13  H    6.982013   1.770268   0.000000
    14  H    7.056959   1.773099   1.771363   0.000000
    15  H    5.056272   2.477050   2.461225   3.058910   0.000000
    16  H    4.177583   4.704345   4.993389   4.074626   3.757921
    17  H    2.823981   5.510112   4.900017   4.745785   3.783575
    18  H    2.774033   5.152176   4.431384   4.879277   2.936272
    19  H    2.977771   4.677581   4.803133   4.944780   2.467186
    20  H    4.919389   3.780674   3.149194   2.601874   3.050565
    21  H    4.929163   3.747983   2.534654   3.078584   2.505815
    22  H    5.961696   2.767405   3.661147   2.471079   3.026348
    23  H    5.615194   2.760663   3.874314   3.414820   2.323703
    24  H    4.340107   5.914148   6.592601   5.777685   4.827950
    25  H    2.140156   6.806573   6.848438   6.394595   5.039052
    26  H    2.753364   6.947629   7.216910   7.299093   4.816153
    27  H    3.452887   6.852464   7.388399   7.046377   5.145400
    28  H    2.661437   8.123659   8.360480   8.180227   6.107256
    29  H    1.095335   7.185471   6.801844   7.140036   4.788644
    30  H    1.093835   7.341445   6.809057   6.862592   5.196083
    31  H    1.095888   8.340097   8.072062   8.095109   6.106115
                   16         17         18         19         20
    16  H    0.000000
    17  H    2.748453   0.000000
    18  H    3.738936   1.760674   0.000000
    19  H    3.054708   3.045973   2.349658   0.000000
    20  H    2.650002   2.270593   2.979156   3.770709   0.000000
    21  H    3.969319   2.658452   2.292232   3.695665   1.754929
    22  H    2.302782   4.265450   4.661646   3.743244   2.896542
    23  H    3.017012   4.622820   4.439190   2.854728   3.811433
    24  H    2.146565   4.286577   4.926518   3.320039   4.717685
    25  H    2.642366   2.797540   3.612779   3.030794   4.390613
    26  H    4.530021   4.601719   4.087904   2.428685   5.954235
    27  H    3.701027   4.717197   4.786426   2.909059   5.798335
    28  H    4.697248   4.852156   4.895895   3.651200   6.498782
    29  H    4.761941   3.257422   2.552640   2.820554   5.190799
    30  H    4.190428   2.247503   2.550905   3.502102   4.501759
    31  H    4.943361   3.777597   3.853143   3.899641   5.922646
                   21         22         23         24         25
    21  H    0.000000
    22  H    3.969047   0.000000
    23  H    4.272883   1.742049   0.000000
    24  H    5.761910   3.486342   3.406199   0.000000
    25  H    5.125642   4.771691   4.763854   2.516168   0.000000
    26  H    5.974478   5.696563   4.674361   3.642490   3.072431
    27  H    6.315540   5.007796   4.250850   2.156487   2.516438
    28  H    6.841212   6.380401   5.726669   3.536615   2.499074
    29  H    4.839705   6.233460   5.650925   4.941770   3.064443
    30  H    4.526015   6.038808   5.962340   4.807924   2.459217
    31  H    6.007563   6.859142   6.497786   4.778405   2.512381
                   26         27         28         29         30
    26  H    0.000000
    27  H    1.766041   0.000000
    28  H    1.769051   1.752380   0.000000
    29  H    2.620375   3.814413   3.091727   0.000000
    30  H    3.796274   4.330506   3.641972   1.776472   0.000000
    31  H    3.012050   3.649634   2.360764   1.770839   1.754531
                   31
    31  H    0.000000
 Stoichiometry    C10H20O
 Framework group  C1[X(C10H20O)]
 Deg. of freedom    87
 Full point group                 C1      NOp   1
 Largest Abelian subgroup         C1      NOp   1
 Largest concise Abelian subgroup C1      NOp   1
                         Standard orientation:                         
 ---------------------------------------------------------------------
 Center     Atomic      Atomic             Coordinates (Angstroms)
 Number     Number       Type             X           Y           Z
 ---------------------------------------------------------------------
      1          6           0        3.701486   -0.165315    0.392925
      2          6           0        2.176498   -0.215523    0.452873
      3          6           0        0.135188    1.008750   -0.527560
      4          6           0        0.098160   -1.478335   -0.280412
      5          6           0       -0.626095   -0.169550    0.124199
      6          6           0        1.622724   -1.356258   -0.397316
      7          6           0        1.565568    1.126175    0.023381
      8          8           0       -0.491999    2.267373   -0.335408
      9          6           0       -2.158386   -0.201803   -0.185333
     10          6           0       -2.946216    0.781103    0.697378
     11          6           0       -2.790930   -1.588512    0.016059
     12          1           0        4.087493    0.646529    1.018320
     13          1           0        4.134874   -1.103447    0.755280
     14          1           0        4.055240   -0.003593   -0.630977
     15          1           0        1.895536   -0.402675    1.498189
     16          1           0        0.191778    0.841837   -1.611532
     17          1           0       -0.276913   -1.841459   -1.245131
     18          1           0       -0.134653   -2.253059    0.460835
     19          1           0       -0.531725   -0.063378    1.214839
     20          1           0        1.887921   -1.187792   -1.449603
     21          1           0        2.083265   -2.310755   -0.115223
     22          1           0        2.184250    1.606461   -0.746538
     23          1           0        1.590646    1.815833    0.877817
     24          1           0       -1.217793    2.332118   -0.979146
     25          1           0       -2.310207    0.079958   -1.235093
     26          1           0       -2.819729    0.542541    1.759274
     27          1           0       -2.647668    1.819581    0.551606
     28          1           0       -4.017260    0.729398    0.470653
     29          1           0       -2.606700   -1.964729    1.028125
     30          1           0       -2.404681   -2.318694   -0.700964
     31          1           0       -3.875655   -1.548053   -0.134632
 ---------------------------------------------------------------------
 Rotational constants (GHZ):      1.7895580      0.7010892      0.5474937
 Standard basis: STO-3G (5D, 7F)
 There are    75 symmetry adapted basis functions of A   symmetry.
 Integral buffers will be    131072 words long.
 Raffenetti 1 integral format.
 Two-electron integral symmetry is turned on.
    75 basis functions,   225 primitive gaussians,    75 cartesian basis functions
    44 alpha electrons       44 beta electrons
       nuclear repulsion energy       687.7828232892 Hartrees.
 NAtoms=   31 NActive=   31 NUniq=   31 SFac= 1.00D+00 NAtFMM=   60 NAOKFM=F Big=F
 One-electron integrals computed using PRISM.
 NBasis=    75 RedAO= T  NBF=    75
 NBsUse=    75 1.00D-06 NBFU=    75
 Harris functional with IExCor=  205 diagonalized for initial guess.
 ExpMin= 1.69D-01 ExpMax= 1.31D+02 ExpMxC= 1.31D+02 IAcc=1 IRadAn=         1 AccDes= 0.00D+00
 HarFok:  IExCor=  205 AccDes= 0.00D+00 IRadAn=         1 IDoV= 1
 ScaDFX=  1.000000  1.000000  1.000000  1.000000
 FoFCou: FMM=F IPFlag=           0 FMFlag=      100000 FMFlg1=           0
         NFxFlg=           0 DoJE=T BraDBF=F KetDBF=T FulRan=T
         Omega=  0.000000  0.000000  1.000000  0.000000  0.000000 ICntrl=     500 IOpCl=  0
         NMat0=    1 NMatS0=    1 NMatT0=    0 NMatD0=    1 NMtDS0=    0 NMtDT0=    0
         I1Cent=           4 NGrid=           0.
 Petite list used in FoFCou.
 Initial guess orbital symmetries:
       Occupied  (A) (A) (A) (A) (A) (A) (A) (A) (A) (A) (A) (A)
                 (A) (A) (A) (A) (A) (A) (A) (A) (A) (A) (A) (A)
                 (A) (A) (A) (A) (A) (A) (A) (A) (A) (A) (A) (A)
                 (A) (A) (A) (A) (A) (A) (A) (A)
       Virtual   (A) (A) (A) (A) (A) (A) (A) (A) (A) (A) (A) (A)
                 (A) (A) (A) (A) (A) (A) (A) (A) (A) (A) (A) (A)
                 (A) (A) (A) (A) (A) (A) (A)
 The electronic state of the initial guess is 1-A.
 Requested convergence on RMS density matrix=1.00D-08 within 128 cycles.
 Requested convergence on MAX density matrix=1.00D-06.
 Requested convergence on             energy=1.00D-06.
 No special actions if energy rises.
 Keep R1 ints in memory in canonical form, NReq=4898789.
 SCF Done:  E(RHF) =  -459.609601545     A.U. after   10 cycles
             Convg  =    0.9801D-08             -V/T =  2.0089
 Range of M.O.s used for correlation:     1    75
 NBasis=    75 NAE=    44 NBE=    44 NFC=     0 NFV=     0
 NROrb=     75 NOA=    44 NOB=    44 NVA=    31 NVB=    31
          Differentiating once with respect to magnetic field using GIAOs.
          Electric field/nuclear overlap derivatives assumed to be zero.
          Keep R3 ints in memory in canonical form, NReq=4863575.
 FoFCou: FMM=F IPFlag=           0 FMFlag=           0 FMFlg1=           0
         NFxFlg=           0 DoJE=F BraDBF=F KetDBF=T FulRan=T
         Omega=  0.000000  0.000000  1.000000  0.000000  0.000000 ICntrl=    6100 IOpCl=  0
         NMat0=    1 NMatS0=    1 NMatT0=    0 NMatD0=    1 NMtDS0=    0 NMtDT0=    0
         I1Cent=           7 NGrid=          31.
 Symmetry not used in FoFCou.
          There are     3 degrees of freedom in the 1st order CPHF.  IDoFFX=0.
      3 vectors produced by pass  0 Test12= 4.55D-14 3.33D-08 XBig12= 8.22D+00 4.93D-01.
 AX will form     3 AO Fock derivatives at one time.
      3 vectors produced by pass  1 Test12= 4.55D-14 3.33D-08 XBig12= 1.34D-02 1.56D-02.
      3 vectors produced by pass  2 Test12= 4.55D-14 3.33D-08 XBig12= 7.09D-05 2.32D-03.
      3 vectors produced by pass  3 Test12= 4.55D-14 3.33D-08 XBig12= 1.51D-06 2.57D-04.
      3 vectors produced by pass  4 Test12= 4.55D-14 3.33D-08 XBig12= 1.94D-08 2.97D-05.
      3 vectors produced by pass  5 Test12= 4.55D-14 3.33D-08 XBig12= 2.80D-10 2.31D-06.
      3 vectors produced by pass  6 Test12= 4.55D-14 3.33D-08 XBig12= 2.55D-12 2.59D-07.
 Inverted reduced A of dimension    21 with in-core refinement.
 Calculating GIAO nuclear magnetic shielding tensors.
 SCF GIAO Magnetic shielding tensor (ppm):
      1  C    Isotropic =   221.2412   Anisotropy =    27.7486
   XX=   239.6081   YX=    -0.8024   ZX=     3.2102
   XY=     0.1300   YY=   212.5567   ZY=    -1.2690
   XZ=     0.5141   YZ=    -3.5996   ZZ=   211.5588
   Eigenvalues:   209.5219   214.4615   239.7403
      2  C    Isotropic =   216.8274   Anisotropy =    10.4393
   XX=   222.9636   YX=    -0.7627   ZX=     3.4886
   XY=    -1.3687   YY=   218.6080   ZY=     2.3720
   XZ=     3.1445   YZ=     1.4134   ZZ=   208.9106
   Eigenvalues:   207.7672   218.9281   223.7869
      3  C    Isotropic =   186.4498   Anisotropy =    40.1868
   XX=   190.6108   YX=   -16.1615   ZX=    -5.9619
   XY=   -11.2689   YY=   204.0237   ZY=     2.4656
   XZ=    -4.9138   YZ=     4.0176   ZZ=   164.7147
   Eigenvalues:   163.6126   182.4957   213.2410
      4  C    Isotropic =   217.3550   Anisotropy =    17.1742
   XX=   228.4083   YX=    -2.1033   ZX=     0.1204
   XY=    -0.8814   YY=   220.9914   ZY=     3.6493
   XZ=    -1.7809   YZ=     4.7218   ZZ=   202.6654
   Eigenvalues:   201.7455   221.5151   228.8045
      5  C    Isotropic =   209.9416   Anisotropy =    18.4051
   XX=   221.7878   YX=     1.6501   ZX=     1.7491
   XY=    -0.5836   YY=   206.9087   ZY=    -1.8243
   XZ=     4.1400   YZ=     0.4794   ZZ=   201.1283
   Eigenvalues:   200.6296   206.9836   222.2117
      6  C    Isotropic =   217.2972   Anisotropy =    18.2275
   XX=   225.5230   YX=     3.2514   ZX=     3.1842
   XY=     5.4711   YY=   217.3915   ZY=     7.1198
   XZ=     4.5921   YZ=     6.1395   ZZ=   208.9772
   Eigenvalues:   205.2388   217.2040   229.4489
      7  C    Isotropic =   214.8863   Anisotropy =    25.2914
   XX=   226.7936   YX=    -6.4041   ZX=     5.9429
   XY=    -7.0538   YY=   218.0240   ZY=    -3.5514
   XZ=     5.7966   YZ=    -1.8880   ZZ=   199.8412
   Eigenvalues:   198.5247   214.3869   231.7472
      8  O    Isotropic =   366.6396   Anisotropy =    85.6090
   XX=   392.8763   YX=   -14.8508   ZX=    31.4129
   XY=    13.4735   YY=   327.3817   ZY=     0.1020
   XZ=    42.2978   YZ=     0.7387   ZZ=   379.6609
   Eigenvalues:   327.3538   348.8528   423.7123
      9  C    Isotropic =   213.2260   Anisotropy =    15.8654
   XX=   223.6645   YX=    -1.2534   ZX=     0.3050
   XY=    -0.4351   YY=   212.5000   ZY=     0.7290
   XZ=     2.4163   YZ=     2.8326   ZZ=   203.5134
   Eigenvalues:   203.0647   212.8103   223.8029
     10  C    Isotropic =   220.0854   Anisotropy =    28.5445
   XX=   223.3937   YX=    -8.7706   ZX=    -7.9772
   XY=   -10.1134   YY=   220.7071   ZY=     8.7980
   XZ=    -7.3326   YZ=    13.3103   ZZ=   216.1555
   Eigenvalues:   207.1452   213.9960   239.1151
     11  C    Isotropic =   221.5571   Anisotropy =    23.3708
   XX=   222.5412   YX=     8.0458   ZX=    -1.0919
   XY=     6.1883   YY=   233.4956   ZY=     0.2765
   XZ=    -2.0934   YZ=    -3.1358   ZZ=   208.6344
   Eigenvalues:   208.4363   219.0973   237.1376
     12  H    Isotropic =    32.3172   Anisotropy =    13.6431
   XX=    35.0630   YX=     4.2342   ZX=     4.7898
   XY=     3.9447   YY=    32.0626   ZY=     4.5524
   XZ=     4.5114   YZ=     4.2817   ZZ=    29.8259
   Eigenvalues:    26.1196    29.4194    41.4126
     13  H    Isotropic =    32.4896   Anisotropy =    13.9791
   XX=    35.5842   YX=    -5.4726   ZX=     3.4740
   XY=    -5.2696   YY=    34.1436   ZY=    -3.1209
   XZ=     3.3089   YZ=    -3.1985   ZZ=    27.7411
   Eigenvalues:    26.2094    29.4504    41.8090
     14  H    Isotropic =    32.6855   Anisotropy =    11.7646
   XX=    35.6660   YX=     1.0702   ZX=    -5.0086
   XY=     0.7858   YY=    27.5371   ZY=    -1.3540
   XZ=    -5.1050   YZ=    -1.3351   ZZ=    34.8533
   Eigenvalues:    27.2977    30.2302    40.5285
     15  H    Isotropic =    32.5463   Anisotropy =    10.3377
   XX=    31.5828   YX=     0.2105   ZX=    -0.1327
   XY=     0.1481   YY=    26.9553   ZY=    -2.1333
   XZ=    -0.1923   YZ=    -1.9411   ZZ=    39.1010
   Eigenvalues:    26.6181    31.5828    39.4381
     16  H    Isotropic =    32.0956   Anisotropy =     7.5160
   XX=    30.0745   YX=    -0.3733   ZX=    -0.8086
   XY=    -1.3316   YY=    29.3227   ZY=    -0.6083
   XZ=    -0.4804   YZ=    -1.7475   ZZ=    36.8897
   Eigenvalues:    28.5518    30.6287    37.1063
     17  H    Isotropic =    32.6160   Anisotropy =    11.0761
   XX=    33.9946   YX=     1.4226   ZX=     2.3012
   XY=     1.3443   YY=    30.3727   ZY=     6.5098
   XZ=     2.3334   YZ=     6.8951   ZZ=    33.4808
   Eigenvalues:    25.0313    32.8167    40.0001
     18  H    Isotropic =    32.3390   Anisotropy =    11.8398
   XX=    32.7335   YX=     1.1023   ZX=    -2.2510
   XY=     1.1324   YY=    36.3804   ZY=    -6.2343
   XZ=    -2.0700   YZ=    -6.2583   ZZ=    27.9030
   Eigenvalues:    24.3564    32.4284    40.2322
     19  H    Isotropic =    32.5273   Anisotropy =     7.2645
   XX=    33.5387   YX=    -0.2752   ZX=     0.0861
   XY=    -0.2132   YY=    26.7274   ZY=     0.5112
   XZ=    -0.2408   YZ=     0.9798   ZZ=    37.3158
   Eigenvalues:    26.6669    33.5447    37.3703
     20  H    Isotropic =    32.7740   Anisotropy =    11.2828
   XX=    32.0568   YX=     0.1057   ZX=    -3.5912
   XY=    -0.1413   YY=    27.9969   ZY=     2.1746
   XZ=    -3.5955   YZ=     2.5685   ZZ=    38.2684
   Eigenvalues:    27.3205    30.7057    40.2959
     21  H    Isotropic =    32.4521   Anisotropy =    13.8703
   XX=    33.1090   YX=    -4.6629   ZX=     1.4215
   XY=    -4.5540   YY=    39.0503   ZY=    -0.8631
   XZ=     1.3091   YZ=    -1.0601   ZZ=    25.1971
   Eigenvalues:    24.9651    30.6923    41.6990
     22  H    Isotropic =    32.1498   Anisotropy =    12.2662
   XX=    35.0361   YX=     3.5199   ZX=    -3.0184
   XY=     2.9066   YY=    31.7426   ZY=    -5.6177
   XZ=    -3.2489   YZ=    -5.8570   ZZ=    29.6705
   Eigenvalues:    24.8624    31.2597    40.3272
     23  H    Isotropic =    31.8481   Anisotropy =    12.0827
   XX=    29.9191   YX=    -0.0235   ZX=     2.8219
   XY=     0.0070   YY=    34.6655   ZY=     6.4525
   XZ=     2.9803   YZ=     6.5797   ZZ=    30.9597
   Eigenvalues:    24.9160    30.7250    39.9032
     24  H    Isotropic =    34.6557   Anisotropy =    16.9698
   XX=    37.6376   YX=    -4.6714   ZX=     7.9574
   XY=    -3.9185   YY=    34.6246   ZY=    -2.4992
   XZ=     8.3081   YZ=    -4.3142   ZZ=    31.7050
   Eigenvalues:    25.9988    31.9994    45.9689
     25  H    Isotropic =    33.0340   Anisotropy =    10.0418
   XX=    31.7438   YX=     0.3108   ZX=     2.7119
   XY=     0.1926   YY=    29.4296   ZY=    -3.1190
   XZ=     2.8531   YZ=    -2.9024   ZZ=    37.9287
   Eigenvalues:    28.0853    31.2882    39.7286
     26  H    Isotropic =    32.5169   Anisotropy =    11.2757
   XX=    29.7341   YX=    -1.1054   ZX=    -2.6225
   XY=    -1.0599   YY=    28.4498   ZY=     0.7836
   XZ=    -2.2478   YZ=     0.7530   ZZ=    39.3669
   Eigenvalues:    27.8015    29.7152    40.0340
     27  H    Isotropic =    32.2255   Anisotropy =    10.2776
   XX=    31.5472   YX=     0.1503   ZX=    -3.3422
   XY=     0.0946   YY=    39.0647   ZY=     0.0825
   XZ=    -2.4448   YZ=     0.7202   ZZ=    26.0646
   Eigenvalues:    24.8078    32.7914    39.0772
     28  H    Isotropic =    32.5926   Anisotropy =    14.3384
   XX=    41.6277   YX=    -2.4377   ZX=     0.0901
   XY=    -2.7336   YY=    29.3686   ZY=     0.9900
   XZ=     0.0981   YZ=     1.0466   ZZ=    26.7815
   Eigenvalues:    26.3642    29.2621    42.1515
     29  H    Isotropic =    32.5794   Anisotropy =    10.8420
   XX=    30.2040   YX=     1.5567   ZX=    -0.8990
   XY=     1.6385   YY=    32.7945   ZY=    -5.7781
   XZ=    -0.7591   YZ=    -5.5580   ZZ=    34.7397
   Eigenvalues:    27.7986    30.1323    39.8074
     30  H    Isotropic =    32.4642   Anisotropy =    10.9441
   XX=    31.8000   YX=     0.6855   ZX=    -1.5061
   XY=     0.5141   YY=    36.0720   ZY=     6.2479
   XZ=    -1.2811   YZ=     6.0311   ZZ=    29.5205
   Eigenvalues:    25.4796    32.1526    39.7603
     31  H    Isotropic =    32.5880   Anisotropy =    14.1187
   XX=    40.9826   YX=     3.0865   ZX=     1.5178
   XY=     3.1389   YY=    30.2999   ZY=     0.7393
   XZ=     1.4445   YZ=     1.0009   ZZ=    26.4815
   Eigenvalues:    26.2414    29.5222    42.0005
 End of Minotr Frequency-dependent properties file   721 does not exist.
 End of Minotr Frequency-dependent properties file   722 does not exist.

 **********************************************************************

            Population analysis using the SCF density.

 **********************************************************************

 Orbital symmetries:
       Occupied  (A) (A) (A) (A) (A) (A) (A) (A) (A) (A) (A) (A)
                 (A) (A) (A) (A) (A) (A) (A) (A) (A) (A) (A) (A)
                 (A) (A) (A) (A) (A) (A) (A) (A) (A) (A) (A) (A)
                 (A) (A) (A) (A) (A) (A) (A) (A)
       Virtual   (A) (A) (A) (A) (A) (A) (A) (A) (A) (A) (A) (A)
                 (A) (A) (A) (A) (A) (A) (A) (A) (A) (A) (A) (A)
                 (A) (A) (A) (A) (A) (A) (A)
 The electronic state is 1-A.
 Alpha  occ. eigenvalues --  -20.24008 -11.08523 -11.04987 -11.04557 -11.04034
 Alpha  occ. eigenvalues --  -11.03557 -11.03505 -11.03335 -11.03123 -11.03114
 Alpha  occ. eigenvalues --  -11.02728  -1.28105  -1.08117  -1.03690  -0.96854
 Alpha  occ. eigenvalues --   -0.94500  -0.88666  -0.87731  -0.79271  -0.78204
 Alpha  occ. eigenvalues --   -0.74059  -0.68808  -0.64241  -0.60209  -0.58527
 Alpha  occ. eigenvalues --   -0.57554  -0.56517  -0.54354  -0.53178  -0.52016
 Alpha  occ. eigenvalues --   -0.50572  -0.50242  -0.48963  -0.47803  -0.46472
 Alpha  occ. eigenvalues --   -0.45743  -0.43836  -0.43144  -0.42432  -0.40991
 Alpha  occ. eigenvalues --   -0.40359  -0.38220  -0.37059  -0.32440
 Alpha virt. eigenvalues --    0.52949   0.54471   0.56782   0.59420   0.61233
 Alpha virt. eigenvalues --    0.61726   0.62551   0.65048   0.65905   0.66635
 Alpha virt. eigenvalues --    0.66979   0.68266   0.70788   0.71597   0.72440
 Alpha virt. eigenvalues --    0.72596   0.73705   0.74428   0.75190   0.76021
 Alpha virt. eigenvalues --    0.76734   0.77182   0.78716   0.79439   0.79775
 Alpha virt. eigenvalues --    0.81327   0.81429   0.82202   0.85045   0.85603
 Alpha virt. eigenvalues --    0.88352
          Condensed to atoms (all electrons):
              1          2          3          4          5          6
     1  C    4.738193   0.366216   0.000656   0.000728   0.000023  -0.023769
     2  C    0.366216   4.742890  -0.018880  -0.021901  -0.006685   0.364157
     3  C    0.000656  -0.018880   4.741859  -0.023009   0.353356  -0.006909
     4  C    0.000728  -0.021901  -0.023009   4.763515   0.358132   0.360254
     5  C    0.000023  -0.006685   0.353356   0.358132   4.794973  -0.018539
     6  C   -0.023769   0.364157  -0.006909   0.360254  -0.018539   4.758719
     7  C   -0.023844   0.361941   0.358921  -0.002782  -0.023161  -0.023982
     8  O   -0.000001   0.000230   0.267843   0.000227  -0.016782   0.000006
     9  C    0.000000   0.000023  -0.018252  -0.018763   0.358212   0.000524
    10  C    0.000000   0.000000  -0.000062   0.000577  -0.021057  -0.000003
    11  C    0.000000   0.000000   0.000532  -0.004926  -0.019401   0.000030
    12  H    0.382515  -0.020295   0.000010  -0.000017   0.000000   0.001296
    13  H    0.382346  -0.020301  -0.000016   0.000012   0.000000  -0.002197
    14  H    0.382171  -0.020788   0.000013   0.000006   0.000000  -0.002197
    15  H   -0.024646   0.382621   0.000076  -0.002204  -0.000325  -0.024889
    16  H   -0.000008   0.000233   0.376157  -0.002711  -0.027689  -0.000124
    17  H   -0.000016   0.001262  -0.000647   0.381896  -0.021265  -0.023715
    18  H   -0.000012   0.000232   0.001247   0.383338  -0.021937  -0.023128
    19  H    0.000000  -0.000276  -0.024213  -0.023251   0.379439  -0.000232
    20  H   -0.002085  -0.023269  -0.000137  -0.022972   0.000349   0.381733
    21  H   -0.002344  -0.020704   0.000058  -0.021651   0.001040   0.383573
    22  H   -0.004963  -0.021416  -0.022894   0.000008   0.001208  -0.000156
    23  H   -0.000104  -0.021515  -0.020846   0.000041  -0.000274   0.001278
    24  H    0.000000  -0.000036  -0.041359  -0.000022  -0.000228  -0.000001
    25  H    0.000000   0.000000  -0.003195  -0.000212  -0.023898  -0.000011
    26  H    0.000000   0.000000   0.000014   0.000016  -0.002341   0.000000
    27  H    0.000000   0.000000   0.000002   0.000003  -0.001223   0.000000
    28  H    0.000000   0.000000  -0.000009  -0.000013   0.001112   0.000000
    29  H    0.000000   0.000000   0.000002  -0.000354  -0.001973  -0.000001
    30  H    0.000000   0.000000   0.000005  -0.001517  -0.001140   0.000018
    31  H    0.000000   0.000000  -0.000011   0.000071   0.001054   0.000000
              7          8          9         10         11         12
     1  C   -0.023844  -0.000001   0.000000   0.000000   0.000000   0.382515
     2  C    0.361941   0.000230   0.000023   0.000000   0.000000  -0.020295
     3  C    0.358921   0.267843  -0.018252  -0.000062   0.000532   0.000010
     4  C   -0.002782   0.000227  -0.018763   0.000577  -0.004926  -0.000017
     5  C   -0.023161  -0.016782   0.358212  -0.021057  -0.019401   0.000000
     6  C   -0.023982   0.000006   0.000524  -0.000003   0.000030   0.001296
     7  C    4.770048  -0.020539   0.000543  -0.000008  -0.000003  -0.002114
     8  O   -0.020539   7.844697  -0.000608  -0.001377  -0.000001   0.000000
     9  C    0.000543  -0.000608   4.741313   0.364386   0.363871   0.000000
    10  C   -0.000008  -0.001377   0.364386   4.749673  -0.028472   0.000000
    11  C   -0.000003  -0.000001   0.363871  -0.028472   4.743759   0.000000
    12  H   -0.002114   0.000000   0.000000   0.000000   0.000000   0.628774
    13  H    0.001284   0.000000   0.000000   0.000000   0.000000  -0.021559
    14  H   -0.002292   0.000000   0.000000   0.000000   0.000000  -0.021630
    15  H   -0.024042  -0.000002   0.000001   0.000000   0.000000  -0.002311
    16  H   -0.024165  -0.018256  -0.001153  -0.000002  -0.000004   0.000000
    17  H    0.000027  -0.000002  -0.003299   0.000010  -0.001153   0.000000
    18  H   -0.000001  -0.000004  -0.000339  -0.000004  -0.000713   0.000000
    19  H   -0.003000  -0.000166  -0.024924  -0.004488  -0.000341   0.000000
    20  H   -0.002296   0.000000  -0.000009   0.000000   0.000000   0.000003
    21  H    0.001261   0.000000  -0.000009   0.000000  -0.000001   0.000021
    22  H    0.381614   0.000207  -0.000012   0.000000   0.000000  -0.000082
    23  H    0.380261  -0.001512  -0.000009   0.000000   0.000000   0.000209
    24  H    0.002769   0.258566   0.000012  -0.001098  -0.000001   0.000000
    25  H    0.000012  -0.000023   0.379117  -0.023811  -0.024394   0.000000
    26  H    0.000000   0.000028  -0.020566   0.382047  -0.002201   0.000000
    27  H   -0.000006  -0.000172  -0.018785   0.382746   0.001366   0.000000
    28  H    0.000000   0.000019  -0.019918   0.381625  -0.003506   0.000000
    29  H    0.000000   0.000000  -0.020629  -0.001839   0.382118   0.000000
    30  H    0.000000   0.000000  -0.019397   0.001383   0.382919   0.000000
    31  H    0.000000   0.000000  -0.019455  -0.003717   0.382674   0.000000
             13         14         15         16         17         18
     1  C    0.382346   0.382171  -0.024646  -0.000008  -0.000016  -0.000012
     2  C   -0.020301  -0.020788   0.382621   0.000233   0.001262   0.000232
     3  C   -0.000016   0.000013   0.000076   0.376157  -0.000647   0.001247
     4  C    0.000012   0.000006  -0.002204  -0.002711   0.381896   0.383338
     5  C    0.000000   0.000000  -0.000325  -0.027689  -0.021265  -0.021937
     6  C   -0.002197  -0.002197  -0.024889  -0.000124  -0.023715  -0.023128
     7  C    0.001284  -0.002292  -0.024042  -0.024165   0.000027  -0.000001
     8  O    0.000000   0.000000  -0.000002  -0.018256  -0.000002  -0.000004
     9  C    0.000000   0.000000   0.000001  -0.001153  -0.003299  -0.000339
    10  C    0.000000   0.000000   0.000000  -0.000002   0.000010  -0.000004
    11  C    0.000000   0.000000   0.000000  -0.000004  -0.001153  -0.000713
    12  H   -0.021559  -0.021630  -0.002311   0.000000   0.000000   0.000000
    13  H    0.630640  -0.021797  -0.002392   0.000000  -0.000001   0.000001
    14  H   -0.021797   0.630803   0.001915   0.000003   0.000000   0.000000
    15  H   -0.002392   0.001915   0.652507  -0.000022   0.000004   0.000245
    16  H    0.000000   0.000003  -0.000022   0.670281   0.000319   0.000012
    17  H   -0.000001   0.000000   0.000004   0.000319   0.647035  -0.023464
    18  H    0.000001   0.000000   0.000245   0.000012  -0.023464   0.644639
    19  H    0.000000   0.000000  -0.000614   0.001927   0.001834  -0.004797
    20  H    0.000007   0.000401   0.002018  -0.000408  -0.006667   0.001937
    21  H    0.000219  -0.000008  -0.002116   0.000004   0.000625  -0.006346
    22  H    0.000065   0.000346   0.001862  -0.005848   0.000002   0.000001
    23  H   -0.000021   0.000001  -0.005473   0.001833   0.000001   0.000001
    24  H    0.000000   0.000000   0.000000  -0.007106   0.000002   0.000000
    25  H    0.000000   0.000000   0.000000   0.000504   0.000349  -0.000006
    26  H    0.000000   0.000000   0.000000  -0.000001   0.000000   0.000005
    27  H    0.000000   0.000000   0.000000   0.000034   0.000000   0.000000
    28  H    0.000000   0.000000   0.000000   0.000000  -0.000001   0.000000
    29  H    0.000000   0.000000   0.000000   0.000000   0.000059  -0.000374
    30  H    0.000000   0.000000   0.000000   0.000003  -0.000871  -0.000664
    31  H    0.000000   0.000000   0.000000   0.000000  -0.000001   0.000025
             19         20         21         22         23         24
     1  C    0.000000  -0.002085  -0.002344  -0.004963  -0.000104   0.000000
     2  C   -0.000276  -0.023269  -0.020704  -0.021416  -0.021515  -0.000036
     3  C   -0.024213  -0.000137   0.000058  -0.022894  -0.020846  -0.041359
     4  C   -0.023251  -0.022972  -0.021651   0.000008   0.000041  -0.000022
     5  C    0.379439   0.000349   0.001040   0.001208  -0.000274  -0.000228
     6  C   -0.000232   0.381733   0.383573  -0.000156   0.001278  -0.000001
     7  C   -0.003000  -0.002296   0.001261   0.381614   0.380261   0.002769
     8  O   -0.000166   0.000000   0.000000   0.000207  -0.001512   0.258566
     9  C   -0.024924  -0.000009  -0.000009  -0.000012  -0.000009   0.000012
    10  C   -0.004488   0.000000   0.000000   0.000000   0.000000  -0.001098
    11  C   -0.000341   0.000000  -0.000001   0.000000   0.000000  -0.000001
    12  H    0.000000   0.000003   0.000021  -0.000082   0.000209   0.000000
    13  H    0.000000   0.000007   0.000219   0.000065  -0.000021   0.000000
    14  H    0.000000   0.000401  -0.000008   0.000346   0.000001   0.000000
    15  H   -0.000614   0.002018  -0.002116   0.001862  -0.005473   0.000000
    16  H    0.001927  -0.000408   0.000004  -0.005848   0.001833  -0.007106
    17  H    0.001834  -0.006667   0.000625   0.000002   0.000001   0.000002
    18  H   -0.004797   0.001937  -0.006346   0.000001   0.000001   0.000000
    19  H    0.652037  -0.000025  -0.000006   0.000020   0.000233  -0.000009
    20  H   -0.000025   0.649444  -0.024144   0.000295   0.000006   0.000000
    21  H   -0.000006  -0.024144   0.639214  -0.000021  -0.000034   0.000000
    22  H    0.000020   0.000295  -0.000021   0.641911  -0.024135  -0.000064
    23  H    0.000233   0.000006  -0.000034  -0.024135   0.628701   0.000099
    24  H   -0.000009   0.000000   0.000000  -0.000064   0.000099   0.610822
    25  H    0.001821   0.000001   0.000000  -0.000001   0.000000  -0.000108
    26  H    0.000331   0.000000   0.000000   0.000000   0.000000   0.000012
    27  H    0.000000   0.000000   0.000000   0.000000   0.000001  -0.001389
    28  H    0.000053   0.000000   0.000000   0.000000   0.000000   0.000026
    29  H    0.000340   0.000000   0.000000   0.000000   0.000000   0.000000
    30  H    0.000004   0.000000   0.000001   0.000000   0.000000   0.000000
    31  H   -0.000021   0.000000   0.000000   0.000000   0.000000   0.000000
             25         26         27         28         29         30
     1  C    0.000000   0.000000   0.000000   0.000000   0.000000   0.000000
     2  C    0.000000   0.000000   0.000000   0.000000   0.000000   0.000000
     3  C   -0.003195   0.000014   0.000002  -0.000009   0.000002   0.000005
     4  C   -0.000212   0.000016   0.000003  -0.000013  -0.000354  -0.001517
     5  C   -0.023898  -0.002341  -0.001223   0.001112  -0.001973  -0.001140
     6  C   -0.000011   0.000000   0.000000   0.000000  -0.000001   0.000018
     7  C    0.000012   0.000000  -0.000006   0.000000   0.000000   0.000000
     8  O   -0.000023   0.000028  -0.000172   0.000019   0.000000   0.000000
     9  C    0.379117  -0.020566  -0.018785  -0.019918  -0.020629  -0.019397
    10  C   -0.023811   0.382047   0.382746   0.381625  -0.001839   0.001383
    11  C   -0.024394  -0.002201   0.001366  -0.003506   0.382118   0.382919
    12  H    0.000000   0.000000   0.000000   0.000000   0.000000   0.000000
    13  H    0.000000   0.000000   0.000000   0.000000   0.000000   0.000000
    14  H    0.000000   0.000000   0.000000   0.000000   0.000000   0.000000
    15  H    0.000000   0.000000   0.000000   0.000000   0.000000   0.000000
    16  H    0.000504  -0.000001   0.000034   0.000000   0.000000   0.000003
    17  H    0.000349   0.000000   0.000000  -0.000001   0.000059  -0.000871
    18  H   -0.000006   0.000005   0.000000   0.000000  -0.000374  -0.000664
    19  H    0.001821   0.000331   0.000000   0.000053   0.000340   0.000004
    20  H    0.000001   0.000000   0.000000   0.000000   0.000000   0.000000
    21  H    0.000000   0.000000   0.000000   0.000000   0.000000   0.000001
    22  H   -0.000001   0.000000   0.000000   0.000000   0.000000   0.000000
    23  H    0.000000   0.000000   0.000001   0.000000   0.000000   0.000000
    24  H   -0.000108   0.000012  -0.001389   0.000026   0.000000   0.000000
    25  H    0.659838   0.001838  -0.002172  -0.001881   0.001885  -0.002753
    26  H    0.001838   0.629684  -0.021609  -0.021577   0.000247   0.000012
    27  H   -0.002172  -0.021609   0.622262  -0.022749   0.000004  -0.000038
    28  H   -0.001881  -0.021577  -0.022749   0.635692   0.000012   0.000055
    29  H    0.001885   0.000247   0.000004   0.000012   0.629980  -0.021423
    30  H   -0.002753   0.000012  -0.000038   0.000055  -0.021423   0.631643
    31  H   -0.001710  -0.000003   0.000060  -0.000158  -0.021607  -0.022815
             31
     1  C    0.000000
     2  C    0.000000
     3  C   -0.000011
     4  C    0.000071
     5  C    0.001054
     6  C    0.000000
     7  C    0.000000
     8  O    0.000000
     9  C   -0.019455
    10  C   -0.003717
    11  C    0.382674
    12  H    0.000000
    13  H    0.000000
    14  H    0.000000
    15  H    0.000000
    16  H    0.000000
    17  H   -0.000001
    18  H    0.000025
    19  H   -0.000021
    20  H    0.000000
    21  H    0.000000
    22  H    0.000000
    23  H    0.000000
    24  H    0.000000
    25  H   -0.001710
    26  H   -0.000003
    27  H    0.000060
    28  H   -0.000158
    29  H   -0.021607
    30  H   -0.022815
    31  H    0.631449
 Mulliken atomic charges:
              1
     1  C   -0.171058
     2  C   -0.023737
     3  C    0.079687
     4  C   -0.102518
     5  C   -0.040980
     6  C   -0.101732
     7  C   -0.106446
     8  O   -0.312378
     9  C   -0.021873
    10  C   -0.176507
    11  C   -0.172150
    12  H    0.055181
    13  H    0.053710
    14  H    0.053054
    15  H    0.047787
    16  H    0.036189
    17  H    0.047677
    18  H    0.050107
    19  H    0.048324
    20  H    0.045816
    21  H    0.051368
    22  H    0.052052
    23  H    0.061258
    24  H    0.179114
    25  H    0.038811
    26  H    0.054066
    27  H    0.061666
    28  H    0.051217
    29  H    0.053555
    30  H    0.054576
    31  H    0.054165
 Sum of Mulliken atomic charges =   0.00000
 Mulliken charges with hydrogens summed into heavy atoms:
              1
     1  C   -0.009113
     2  C    0.024050
     3  C    0.115876
     4  C   -0.004734
     5  C    0.007344
     6  C   -0.004548
     7  C    0.006864
     8  O   -0.133264
     9  C    0.016938
    10  C   -0.009559
    11  C   -0.009854
 Sum of Mulliken charges with hydrogens summed into heavy atoms =   0.00000
 Electronic spatial extent (au):  <R**2>=           2227.8852
 Charge=              0.0000 electrons
 Dipole moment (field-independent basis, Debye):
    X=             -0.3052    Y=             -0.9847    Z=             -0.8432  Tot=              1.3318
 Quadrupole moment (field-independent basis, Debye-Ang):
   XX=            -66.8898   YY=            -71.5976   ZZ=            -65.6064
   XY=             -0.9450   XZ=              1.4167   YZ=             -2.0700
 Traceless Quadrupole moment (field-independent basis, Debye-Ang):
   XX=              1.1415   YY=             -3.5664   ZZ=              2.4249
   XY=             -0.9450   XZ=              1.4167   YZ=             -2.0700
 Octapole moment (field-independent basis, Debye-Ang**2):
  XXX=             -8.4036  YYY=              2.5131  ZZZ=             -3.1912  XYY=             -1.3249
  XXY=              8.1373  XXZ=             -3.4007  XZZ=             -1.5159  YZZ=              6.5517
  YYZ=             -3.5821  XYZ=              3.0602
 Hexadecapole moment (field-independent basis, Debye-Ang**3):
 XXXX=          -1989.7321 YYYY=           -701.1036 ZZZZ=           -186.1268 XXXY=            -10.0221
 XXXZ=              6.9543 YYYX=            -18.5643 YYYZ=            -13.6165 ZZZX=              0.5104
 ZZZY=             -7.8560 XXYY=           -436.0537 XXZZ=           -359.0650 YYZZ=           -136.8381
 XXYZ=             -7.6902 YYXZ=             11.0081 ZZXY=             -2.1782
 N-N= 6.877828232892D+02 E-N=-2.447556557726D+03  KE= 4.555386872317D+02
 ******************************Gaussian NBO Version 3.1******************************
             N A T U R A L   A T O M I C   O R B I T A L   A N D
          N A T U R A L   B O N D   O R B I T A L   A N A L Y S I S
 ******************************Gaussian NBO Version 3.1******************************
       /RESON  / : Allow strongly delocalized NBO set
       /NLMO   / : Form Natural Localized Molecular Orbitals
       /NMR /    : Analyze NMR Sheilding Tensor 

 Analyzing the SCF density

 Job title: comment                                                         

 Storage needed:     19864 in NPA,     23691 in NBO,     45933 in NLMO (  33549317 available)


 NATURAL POPULATIONS:  Natural atomic orbital occupancies 
                                                          
   NAO  Atom  No  lang   Type(AO)    Occupancy      Energy
 ----------------------------------------------------------
     1    C    1  S      Cor( 1S)     1.99997     -10.96461
     2    C    1  S      Val( 2S)     1.07945      -0.18060
     3    C    1  px     Val( 2p)     0.98908       0.08978
     4    C    1  py     Val( 2p)     1.02901       0.08453
     5    C    1  pz     Val( 2p)     1.02850       0.08465

     6    C    2  S      Cor( 1S)     1.99997     -10.98771
     7    C    2  S      Val( 2S)     1.07788      -0.18922
     8    C    2  px     Val( 2p)     0.95760       0.11048
     9    C    2  py     Val( 2p)     0.95806       0.11043
    10    C    2  pz     Val( 2p)     0.99260       0.10280

    11    C    3  S      Cor( 1S)     1.99989     -11.03469
    12    C    3  S      Val( 2S)     1.08849      -0.21703
    13    C    3  px     Val( 2p)     0.94134       0.08708
    14    C    3  py     Val( 2p)     0.84234       0.12875
    15    C    3  pz     Val( 2p)     0.98091       0.08905

    16    C    4  S      Cor( 1S)     1.99995     -10.97442
    17    C    4  S      Val( 2S)     1.08828      -0.19219
    18    C    4  px     Val( 2p)     0.97112       0.10127
    19    C    4  py     Val( 2p)     0.98940       0.09310
    20    C    4  pz     Val( 2p)     1.01489       0.09487

    21    C    5  S      Cor( 1S)     1.99995     -10.98660
    22    C    5  S      Val( 2S)     1.10592      -0.21283
    23    C    5  px     Val( 2p)     0.95167       0.10999
    24    C    5  py     Val( 2p)     0.96384       0.10166
    25    C    5  pz     Val( 2p)     0.99887       0.09802

    26    C    6  S      Cor( 1S)     1.99996     -10.97357
    27    C    6  S      Val( 2S)     1.08373      -0.18769
    28    C    6  px     Val( 2p)     0.97534       0.09883
    29    C    6  py     Val( 2p)     0.99906       0.09610
    30    C    6  pz     Val( 2p)     1.00687       0.09362

    31    C    7  S      Cor( 1S)     1.99995     -10.97243
    32    C    7  S      Val( 2S)     1.09340      -0.19427
    33    C    7  px     Val( 2p)     0.97975       0.09528
    34    C    7  py     Val( 2p)     0.98938       0.09844
    35    C    7  pz     Val( 2p)     1.01984       0.09183

    36    O    8  S      Cor( 1S)     1.99999     -20.14269
    37    O    8  S      Val( 2S)     1.74865      -1.00009
    38    O    8  px     Val( 2p)     1.47841      -0.16948
    39    O    8  py     Val( 2p)     1.43238      -0.15163
    40    O    8  pz     Val( 2p)     1.67413      -0.25607

    41    C    9  S      Cor( 1S)     1.99996     -10.99472
    42    C    9  S      Val( 2S)     1.08743      -0.20157
    43    C    9  px     Val( 2p)     0.95090       0.10903
    44    C    9  py     Val( 2p)     0.95807       0.10385
    45    C    9  pz     Val( 2p)     0.98183       0.10496

    46    C   10  S      Cor( 1S)     1.99996     -10.96109
    47    C   10  S      Val( 2S)     1.08276      -0.18063
    48    C   10  px     Val( 2p)     1.01566       0.08719
    49    C   10  py     Val( 2p)     1.01807       0.08980
    50    C   10  pz     Val( 2p)     1.01601       0.08680

    51    C   11  S      Cor( 1S)     1.99997     -10.96529
    52    C   11  S      Val( 2S)     1.08181      -0.18386
    53    C   11  px     Val( 2p)     1.02144       0.08342
    54    C   11  py     Val( 2p)     0.99735       0.08730
    55    C   11  pz     Val( 2p)     1.02726       0.08498

    56    H   12  S      Val( 1S)     0.96219       0.07597

    57    H   13  S      Val( 1S)     0.96356       0.07512

    58    H   14  S      Val( 1S)     0.96424       0.07471

    59    H   15  S      Val( 1S)     0.97620       0.06738

    60    H   16  S      Val( 1S)     0.99873       0.04287

    61    H   17  S      Val( 1S)     0.97337       0.06957

    62    H   18  S      Val( 1S)     0.97131       0.07198

    63    H   19  S      Val( 1S)     0.97763       0.06818

    64    H   20  S      Val( 1S)     0.97468       0.06833

    65    H   21  S      Val( 1S)     0.96911       0.07120

    66    H   22  S      Val( 1S)     0.96905       0.07416

    67    H   23  S      Val( 1S)     0.96003       0.08111

    68    H   24  S      Val( 1S)     0.80820       0.07768

    69    H   25  S      Val( 1S)     0.98637       0.05551

    70    H   26  S      Val( 1S)     0.96319       0.07776

    71    H   27  S      Val( 1S)     0.95739       0.08763

    72    H   28  S      Val( 1S)     0.96589       0.07492

    73    H   29  S      Val( 1S)     0.96393       0.07371

    74    H   30  S      Val( 1S)     0.96337       0.07705

    75    H   31  S      Val( 1S)     0.96327       0.07412


 Summary of Natural Population Analysis:                  
                                                          
                                       Natural Population 
                Natural  -----------------------------------------------
    Atom  No    Charge         Core      Valence    Rydberg      Total
 -----------------------------------------------------------------------
      C    1   -0.12602      1.99997     4.12604    0.00000     6.12602
      C    2    0.01389      1.99997     3.98614    0.00000     5.98611
      C    3    0.14703      1.99989     3.85308    0.00000     5.85297
      C    4   -0.06363      1.99995     4.06368    0.00000     6.06363
      C    5   -0.02025      1.99995     4.02029    0.00000     6.02025
      C    6   -0.06496      1.99996     4.06499    0.00000     6.06496
      C    7   -0.08232      1.99995     4.08237    0.00000     6.08232
      O    8   -0.33355      1.99999     6.33356    0.00000     8.33355
      C    9    0.02181      1.99996     3.97823    0.00000     5.97819
      C   10   -0.13246      1.99996     4.13250    0.00000     6.13246
      C   11   -0.12783      1.99997     4.12786    0.00000     6.12783
      H   12    0.03781      0.00000     0.96219    0.00000     0.96219
      H   13    0.03644      0.00000     0.96356    0.00000     0.96356
      H   14    0.03576      0.00000     0.96424    0.00000     0.96424
      H   15    0.02380      0.00000     0.97620    0.00000     0.97620
      H   16    0.00127      0.00000     0.99873    0.00000     0.99873
      H   17    0.02663      0.00000     0.97337    0.00000     0.97337
      H   18    0.02869      0.00000     0.97131    0.00000     0.97131
      H   19    0.02237      0.00000     0.97763    0.00000     0.97763
      H   20    0.02532      0.00000     0.97468    0.00000     0.97468
      H   21    0.03089      0.00000     0.96911    0.00000     0.96911
      H   22    0.03095      0.00000     0.96905    0.00000     0.96905
      H   23    0.03997      0.00000     0.96003    0.00000     0.96003
      H   24    0.19180      0.00000     0.80820    0.00000     0.80820
      H   25    0.01363      0.00000     0.98637    0.00000     0.98637
      H   26    0.03681      0.00000     0.96319    0.00000     0.96319
      H   27    0.04261      0.00000     0.95739    0.00000     0.95739
      H   28    0.03411      0.00000     0.96589    0.00000     0.96589
      H   29    0.03607      0.00000     0.96393    0.00000     0.96393
      H   30    0.03663      0.00000     0.96337    0.00000     0.96337
      H   31    0.03673      0.00000     0.96327    0.00000     0.96327
 =======================================================================
   * Total *    0.00000     21.99954    66.00046    0.00000    88.00000

                                 Natural Population      
 --------------------------------------------------------
   Core                      21.99954 ( 99.9979% of  22)
   Valence                   66.00046 (100.0007% of  66)
   Natural Minimal Basis     88.00000 (100.0000% of  88)
   Natural Rydberg Basis      0.00000 (  0.0000% of  88)
 --------------------------------------------------------

    Atom  No          Natural Electron Configuration
 ----------------------------------------------------------------------------
      C    1      [core]2S( 1.08)2p( 3.05)
      C    2      [core]2S( 1.08)2p( 2.91)
      C    3      [core]2S( 1.09)2p( 2.76)
      C    4      [core]2S( 1.09)2p( 2.98)
      C    5      [core]2S( 1.11)2p( 2.91)
      C    6      [core]2S( 1.08)2p( 2.98)
      C    7      [core]2S( 1.09)2p( 2.99)
      O    8      [core]2S( 1.75)2p( 4.58)
      C    9      [core]2S( 1.09)2p( 2.89)
      C   10      [core]2S( 1.08)2p( 3.05)
      C   11      [core]2S( 1.08)2p( 3.05)
      H   12            1S( 0.96)
      H   13            1S( 0.96)
      H   14            1S( 0.96)
      H   15            1S( 0.98)
      H   16            1S( 1.00)
      H   17            1S( 0.97)
      H   18            1S( 0.97)
      H   19            1S( 0.98)
      H   20            1S( 0.97)
      H   21            1S( 0.97)
      H   22            1S( 0.97)
      H   23            1S( 0.96)
      H   24            1S( 0.81)
      H   25            1S( 0.99)
      H   26            1S( 0.96)
      H   27            1S( 0.96)
      H   28            1S( 0.97)
      H   29            1S( 0.96)
      H   30            1S( 0.96)
      H   31            1S( 0.96)


 NATURAL BOND ORBITAL ANALYSIS:

                       Occupancies       Lewis Structure    Low   High
           Occ.    -------------------  -----------------   occ   occ
  Cycle   Thresh.   Lewis   Non-Lewis     CR  BD  3C  LP    (L)   (NL)   Dev
 =============================================================================
   1(1)    1.90    87.64339   0.35661     11  31   0   2     0      0    0.02
 -----------------------------------------------------------------------------

 Structure accepted: No low occupancy Lewis orbitals

 --------------------------------------------------------
   Core                     21.99954 ( 99.998% of  22)
   Valence Lewis            65.64385 ( 99.460% of  66)
  ==================       ============================
   Total Lewis              87.64339 ( 99.595% of  88)
  -----------------------------------------------------
   Valence non-Lewis         0.35661 (  0.405% of  88)
   Rydberg non-Lewis         0.00000 (  0.000% of  88)
  ==================       ============================
   Total non-Lewis           0.35661 (  0.405% of  88)
 --------------------------------------------------------


       (Occupancy)   Bond orbital/ Coefficients/ Hybrids
 ---------------------------------------------------------------------------------
     1. (1.98908) BD ( 1) C   1 - C   2  
                ( 50.78%)   0.7126* C   1 s( 25.74%)p 2.88( 74.26%)
                                            0.0001  0.5074 -0.8608 -0.0276  0.0288
                ( 49.22%)   0.7016* C   2 s( 25.33%)p 2.95( 74.67%)
                                            0.0000  0.5033  0.8615  0.0340 -0.0578
     2. (1.99499) BD ( 1) C   1 - H  12  
                ( 51.90%)   0.7204* C   1 s( 24.76%)p 3.04( 75.24%)
                                            0.0000  0.4975  0.2892  0.6482  0.4986
                ( 48.10%)   0.6935* H  12 s(100.00%)
                                            1.0000
     3. (1.99492) BD ( 1) C   1 - H  13  
                ( 51.83%)   0.7199* C   1 s( 24.70%)p 3.05( 75.30%)
                                            0.0000  0.4970  0.3267 -0.7499  0.2896
                ( 48.17%)   0.6940* H  13 s(100.00%)
                                            1.0000
     4. (1.99529) BD ( 1) C   1 - H  14  
                ( 51.83%)   0.7199* C   1 s( 24.80%)p 3.03( 75.20%)
                                            0.0000  0.4980  0.2621  0.1289 -0.8165
                ( 48.17%)   0.6941* H  14 s(100.00%)
                                            1.0000
     5. (1.98608) BD ( 1) C   2 - C   6  
                ( 49.57%)   0.7041* C   2 s( 25.10%)p 2.98( 74.90%)
                                            0.0000  0.5010 -0.3007 -0.6420 -0.4964
                ( 50.43%)   0.7101* C   6 s( 25.44%)p 2.93( 74.56%)
                                            0.0001  0.5044  0.3061  0.6422  0.4894
     6. (1.98375) BD ( 1) C   2 - C   7  
                ( 49.48%)   0.7035* C   2 s( 25.06%)p 2.99( 74.94%)
                                            0.0000  0.5006 -0.3397  0.7520 -0.2616
                ( 50.52%)   0.7107* C   7 s( 25.76%)p 2.88( 74.24%)
                                            0.0001  0.5076  0.3254 -0.7657  0.2242
     7. (1.98522) BD ( 1) C   2 - H  15  
                ( 51.12%)   0.7150* C   2 s( 24.51%)p 3.08( 75.49%)
                                            0.0000  0.4950 -0.2281 -0.1453  0.8257
                ( 48.88%)   0.6991* H  15 s(100.00%)
                                            1.0000
     8. (1.98362) BD ( 1) C   3 - C   5  
                ( 49.97%)   0.7069* C   3 s( 26.05%)p 2.84( 73.95%)
                                            0.0001  0.5103 -0.4454 -0.6295  0.3805
                ( 50.03%)   0.7073* C   5 s( 24.93%)p 3.01( 75.07%)
                                            0.0000  0.4993  0.3847  0.6729 -0.3872
     9. (1.98598) BD ( 1) C   3 - C   7  
                ( 49.98%)   0.7070* C   3 s( 26.19%)p 2.82( 73.81%)
                                            0.0000  0.5118  0.7887  0.0596  0.3355
                ( 50.02%)   0.7072* C   7 s( 25.22%)p 2.97( 74.78%)
                                            0.0001  0.5022 -0.8086 -0.0960 -0.2912
    10. (1.98886) BD ( 1) C   3 - O   8  
                ( 41.01%)   0.6404* C   3 s( 22.74%)p 3.40( 77.26%)
                                            0.0000  0.4769 -0.4210  0.7611  0.1268
                ( 58.99%)   0.7681* O   8 s( 16.55%)p 5.04( 83.45%)
                                            0.0000  0.4069  0.3567 -0.8257 -0.1595
    11. (1.98948) BD ( 1) C   3 - H  16  
                ( 50.33%)   0.7094* C   3 s( 25.02%)p 3.00( 74.98%)
                                            0.0000  0.5002  0.0490 -0.1443 -0.8524
                ( 49.67%)   0.7048* H  16 s(100.00%)
                                            1.0000
    12. (1.98287) BD ( 1) C   4 - C   5  
                ( 50.48%)   0.7105* C   4 s( 25.47%)p 2.93( 74.53%)
                                            0.0001  0.5047 -0.3822  0.7437  0.2149
                ( 49.52%)   0.7037* C   5 s( 24.88%)p 3.02( 75.12%)
                                            0.0000  0.4988  0.3857 -0.7347 -0.2503
    13. (1.98871) BD ( 1) C   4 - C   6  
                ( 50.02%)   0.7073* C   4 s( 25.41%)p 2.93( 74.59%)
                                            0.0000  0.5041  0.8551  0.1112 -0.0481
                ( 49.98%)   0.7069* C   6 s( 25.15%)p 2.98( 74.85%)
                                            0.0000  0.5015 -0.8600 -0.0468  0.0824
    14. (1.99046) BD ( 1) C   4 - H  17  
                ( 51.32%)   0.7164* C   4 s( 24.54%)p 3.08( 75.46%)
                                            0.0000  0.4954 -0.3005 -0.2682 -0.7697
                ( 48.68%)   0.6977* H  17 s(100.00%)
                                            1.0000
    15. (1.99183) BD ( 1) C   4 - H  18  
                ( 51.43%)   0.7172* C   4 s( 24.58%)p 3.07( 75.42%)
                                            0.0000  0.4958 -0.1802 -0.6022  0.5992
                ( 48.57%)   0.6969* H  18 s(100.00%)
                                            1.0000
    16. (1.97909) BD ( 1) C   5 - C   9  
                ( 49.96%)   0.7068* C   5 s( 25.72%)p 2.89( 74.28%)
                                            0.0001  0.5072 -0.8349 -0.0215 -0.2127
                ( 50.04%)   0.7074* C   9 s( 25.44%)p 2.93( 74.56%)
                                            0.0001  0.5044  0.8433  0.0052  0.1857
    17. (1.98552) BD ( 1) C   5 - H  19  
                ( 51.08%)   0.7147* C   5 s( 24.46%)p 3.09( 75.54%)
                                            0.0000  0.4946  0.0788  0.0836  0.8615
                ( 48.92%)   0.6995* H  19 s(100.00%)
                                            1.0000
    18. (1.99173) BD ( 1) C   6 - H  20  
                ( 51.30%)   0.7162* C   6 s( 24.35%)p 3.11( 75.65%)
                                            0.0000  0.4935  0.1997  0.1518 -0.8328
                ( 48.70%)   0.6979* H  20 s(100.00%)
                                            1.0000
    19. (1.99047) BD ( 1) C   6 - H  21  
                ( 51.53%)   0.7178* C   6 s( 25.06%)p 2.99( 74.94%)
                                            0.0000  0.5006  0.3562 -0.7499  0.2454
                ( 48.47%)   0.6962* H  21 s(100.00%)
                                            1.0000
    20. (1.99093) BD ( 1) C   7 - H  22  
                ( 51.55%)   0.7180* C   7 s( 24.46%)p 3.09( 75.54%)
                                            0.0000  0.4946  0.4902  0.3532 -0.6247
                ( 48.45%)   0.6961* H  22 s(100.00%)
                                            1.0000
    21. (1.98934) BD ( 1) C   7 - H  23  
                ( 51.95%)   0.7208* C   7 s( 24.56%)p 3.07( 75.44%)
                                            0.0000  0.4956 -0.0031  0.5289  0.6889
                ( 48.05%)   0.6932* H  23 s(100.00%)
                                            1.0000
    22. (1.98955) BD ( 1) O   8 - H  24  
                ( 59.60%)   0.7720* O   8 s( 16.67%)p 5.00( 83.33%)
                                            0.0000 -0.4083  0.6763 -0.0274  0.6125
                ( 40.40%)   0.6356* H  24 s(100.00%)
                                           -1.0000
    23. (1.98931) BD ( 1) C   9 - C  10  
                ( 49.19%)   0.7014* C   9 s( 24.92%)p 3.01( 75.08%)
                                            0.0000  0.4992 -0.4143  0.5651  0.5097
                ( 50.81%)   0.7128* C  10 s( 25.89%)p 2.86( 74.11%)
                                            0.0001  0.5088  0.4530 -0.5375 -0.4970
    24. (1.98885) BD ( 1) C   9 - C  11  
                ( 49.13%)   0.7009* C   9 s( 24.99%)p 3.00( 75.01%)
                                            0.0000  0.4999 -0.3223 -0.7936  0.1282
                ( 50.87%)   0.7132* C  11 s( 25.75%)p 2.88( 74.25%)
                                            0.0001  0.5074  0.3649  0.7722 -0.1146
    25. (1.98558) BD ( 1) C   9 - H  25  
                ( 50.63%)   0.7115* C   9 s( 24.65%)p 3.06( 75.35%)
                                            0.0000  0.4965 -0.1155  0.2256 -0.8302
                ( 49.37%)   0.7027* H  25 s(100.00%)
                                            1.0000
    26. (1.99508) BD ( 1) C  10 - H  26  
                ( 51.87%)   0.7202* C  10 s( 24.73%)p 3.04( 75.27%)
                                            0.0000  0.4973  0.1136 -0.2059  0.8351
                ( 48.13%)   0.6938* H  26 s(100.00%)
                                            1.0000
    27. (1.99493) BD ( 1) C  10 - H  27  
                ( 52.22%)   0.7226* C  10 s( 24.97%)p 3.01( 75.03%)
                                            0.0000  0.4997  0.2612  0.8153 -0.1321
                ( 47.78%)   0.6912* H  27 s(100.00%)
                                            1.0000
    28. (1.99462) BD ( 1) C  10 - H  28  
                ( 51.71%)   0.7191* C  10 s( 24.42%)p 3.10( 75.58%)
                                            0.0000  0.4942 -0.8448 -0.0638 -0.1951
                ( 48.29%)   0.6949* H  28 s(100.00%)
                                            1.0000
    29. (1.99544) BD ( 1) C  11 - H  29  
                ( 51.84%)   0.7200* C  11 s( 24.89%)p 3.02( 75.11%)
                                            0.0000  0.4989  0.1572 -0.2828  0.8040
                ( 48.16%)   0.6940* H  29 s(100.00%)
                                            1.0000
    30. (1.99510) BD ( 1) C  11 - H  30  
                ( 51.87%)   0.7202* C  11 s( 24.70%)p 3.05( 75.30%)
                                            0.0000  0.4970  0.3266 -0.5657 -0.5713
                ( 48.13%)   0.6938* H  30 s(100.00%)
                                            1.0000
    31. (1.99429) BD ( 1) C  11 - H  31  
                ( 51.84%)   0.7200* C  11 s( 24.66%)p 3.05( 75.34%)
                                            0.0000  0.4966 -0.8576  0.0613 -0.1190
                ( 48.16%)   0.6940* H  31 s(100.00%)
                                            1.0000
    32. (1.99997) CR ( 1) C   1           s(100.00%)
                                            1.0000  0.0000  0.0001  0.0000  0.0000
    33. (1.99997) CR ( 1) C   2           s(100.00%)
                                            1.0000  0.0000  0.0000  0.0000  0.0000
    34. (1.99989) CR ( 1) C   3           s(100.00%)
                                            1.0000  0.0000  0.0000  0.0001  0.0000
    35. (1.99995) CR ( 1) C   4           s(100.00%)
                                            1.0000 -0.0001  0.0000 -0.0001  0.0000
    36. (1.99995) CR ( 1) C   5           s(100.00%)
                                            1.0000  0.0000  0.0000  0.0000  0.0000
    37. (1.99996) CR ( 1) C   6           s(100.00%)
                                            1.0000  0.0000  0.0000 -0.0001  0.0000
    38. (1.99995) CR ( 1) C   7           s(100.00%)
                                            1.0000 -0.0001  0.0000  0.0001  0.0000
    39. (1.99999) CR ( 1) O   8           s(100.00%)
                                            1.0000  0.0000  0.0000  0.0000  0.0000
    40. (1.99996) CR ( 1) C   9           s(100.00%)
                                            1.0000  0.0000 -0.0001  0.0000  0.0000
    41. (1.99996) CR ( 1) C  10           s(100.00%)
                                            1.0000  0.0000 -0.0001  0.0000  0.0000
    42. (1.99997) CR ( 1) C  11           s(100.00%)
                                            1.0000  0.0000 -0.0001 -0.0001  0.0000
    43. (1.99326) LP ( 1) O   8           s( 66.52%)p 0.50( 33.48%)
                                            0.0000  0.8156  0.1215  0.3720  0.4263
    44. (1.96961) LP ( 2) O   8           s(  0.25%)p99.99( 99.75%)
                                            0.0000  0.0505  0.6330  0.4232 -0.6463
    45. (0.00967) BD*( 1) C   1 - C   2  
                ( 49.22%)   0.7016* C   1 s( 25.74%)p 2.88( 74.26%)
                                           -0.0001 -0.5074  0.8608  0.0276 -0.0288
                ( 50.78%)  -0.7126* C   2 s( 25.33%)p 2.95( 74.67%)
                                            0.0000 -0.5033 -0.8615 -0.0340  0.0578
    46. (0.00499) BD*( 1) C   1 - H  12  
                ( 48.10%)   0.6935* C   1 s( 24.76%)p 3.04( 75.24%)
                                            0.0000 -0.4975 -0.2892 -0.6482 -0.4986
                ( 51.90%)  -0.7204* H  12 s(100.00%)
                                           -1.0000
    47. (0.00512) BD*( 1) C   1 - H  13  
                ( 48.17%)   0.6940* C   1 s( 24.70%)p 3.05( 75.30%)
                                            0.0000 -0.4970 -0.3267  0.7499 -0.2896
                ( 51.83%)  -0.7199* H  13 s(100.00%)
                                           -1.0000
    48. (0.00594) BD*( 1) C   1 - H  14  
                ( 48.17%)   0.6941* C   1 s( 24.80%)p 3.03( 75.20%)
                                            0.0000 -0.4980 -0.2621 -0.1289  0.8165
                ( 51.83%)  -0.7199* H  14 s(100.00%)
                                           -1.0000
    49. (0.01542) BD*( 1) C   2 - C   6  
                ( 50.43%)   0.7101* C   2 s( 25.10%)p 2.98( 74.90%)
                                            0.0000  0.5010 -0.3007 -0.6420 -0.4964
                ( 49.57%)  -0.7041* C   6 s( 25.44%)p 2.93( 74.56%)
                                            0.0001  0.5044  0.3061  0.6422  0.4894
    50. (0.01527) BD*( 1) C   2 - C   7  
                ( 50.52%)   0.7107* C   2 s( 25.06%)p 2.99( 74.94%)
                                            0.0000  0.5006 -0.3397  0.7520 -0.2616
                ( 49.48%)  -0.7035* C   7 s( 25.76%)p 2.88( 74.24%)
                                            0.0001  0.5076  0.3254 -0.7657  0.2242
    51. (0.01146) BD*( 1) C   2 - H  15  
                ( 48.88%)   0.6991* C   2 s( 24.51%)p 3.08( 75.49%)
                                            0.0000 -0.4950  0.2281  0.1453 -0.8257
                ( 51.12%)  -0.7150* H  15 s(100.00%)
                                           -1.0000
    52. (0.03624) BD*( 1) C   3 - C   5  
                ( 50.03%)   0.7073* C   3 s( 26.05%)p 2.84( 73.95%)
                                            0.0001  0.5103 -0.4454 -0.6295  0.3805
                ( 49.97%)  -0.7069* C   5 s( 24.93%)p 3.01( 75.07%)
                                            0.0000  0.4993  0.3847  0.6729 -0.3872
    53. (0.02288) BD*( 1) C   3 - C   7  
                ( 50.02%)   0.7072* C   3 s( 26.19%)p 2.82( 73.81%)
                                            0.0000  0.5118  0.7887  0.0596  0.3355
                ( 49.98%)  -0.7070* C   7 s( 25.22%)p 2.97( 74.78%)
                                            0.0001  0.5022 -0.8086 -0.0960 -0.2912
    54. (0.02135) BD*( 1) C   3 - O   8  
                ( 58.99%)   0.7681* C   3 s( 22.74%)p 3.40( 77.26%)
                                            0.0000  0.4769 -0.4210  0.7611  0.1268
                ( 41.01%)  -0.6404* O   8 s( 16.55%)p 5.04( 83.45%)
                                            0.0000  0.4069  0.3567 -0.8257 -0.1595
    55. (0.02077) BD*( 1) C   3 - H  16  
                ( 49.67%)   0.7048* C   3 s( 25.02%)p 3.00( 74.98%)
                                            0.0000 -0.5002 -0.0490  0.1443  0.8524
                ( 50.33%)  -0.7094* H  16 s(100.00%)
                                           -1.0000
    56. (0.01583) BD*( 1) C   4 - C   5  
                ( 49.52%)   0.7037* C   4 s( 25.47%)p 2.93( 74.53%)
                                           -0.0001 -0.5047  0.3822 -0.7437 -0.2149
                ( 50.48%)  -0.7105* C   5 s( 24.88%)p 3.02( 75.12%)
                                            0.0000 -0.4988 -0.3857  0.7347  0.2503
    57. (0.01239) BD*( 1) C   4 - C   6  
                ( 49.98%)   0.7069* C   4 s( 25.41%)p 2.93( 74.59%)
                                            0.0000 -0.5041 -0.8551 -0.1112  0.0481
                ( 50.02%)  -0.7073* C   6 s( 25.15%)p 2.98( 74.85%)
                                            0.0000 -0.5015  0.8600  0.0468 -0.0824
    58. (0.00854) BD*( 1) C   4 - H  17  
                ( 48.68%)   0.6977* C   4 s( 24.54%)p 3.08( 75.46%)
                                            0.0000 -0.4954  0.3005  0.2682  0.7697
                ( 51.32%)  -0.7164* H  17 s(100.00%)
                                           -1.0000
    59. (0.00769) BD*( 1) C   4 - H  18  
                ( 48.57%)   0.6969* C   4 s( 24.58%)p 3.07( 75.42%)
                                            0.0000 -0.4958  0.1802  0.6022 -0.5992
                ( 51.43%)  -0.7172* H  18 s(100.00%)
                                           -1.0000
    60. (0.02199) BD*( 1) C   5 - C   9  
                ( 50.04%)   0.7074* C   5 s( 25.72%)p 2.89( 74.28%)
                                            0.0001  0.5072 -0.8349 -0.0215 -0.2127
                ( 49.96%)  -0.7068* C   9 s( 25.44%)p 2.93( 74.56%)
                                            0.0001  0.5044  0.8433  0.0052  0.1857
    61. (0.01218) BD*( 1) C   5 - H  19  
                ( 48.92%)   0.6995* C   5 s( 24.46%)p 3.09( 75.54%)
                                            0.0000 -0.4946 -0.0788 -0.0836 -0.8615
                ( 51.08%)  -0.7147* H  19 s(100.00%)
                                           -1.0000
    62. (0.00911) BD*( 1) C   6 - H  20  
                ( 48.70%)   0.6979* C   6 s( 24.35%)p 3.11( 75.65%)
                                            0.0000 -0.4935 -0.1997 -0.1518  0.8328
                ( 51.30%)  -0.7162* H  20 s(100.00%)
                                           -1.0000
    63. (0.00822) BD*( 1) C   6 - H  21  
                ( 48.47%)   0.6962* C   6 s( 25.06%)p 2.99( 74.94%)
                                            0.0000 -0.5006 -0.3562  0.7499 -0.2454
                ( 51.53%)  -0.7178* H  21 s(100.00%)
                                           -1.0000
    64. (0.00868) BD*( 1) C   7 - H  22  
                ( 48.45%)   0.6961* C   7 s( 24.46%)p 3.09( 75.54%)
                                            0.0000 -0.4946 -0.4902 -0.3532  0.6247
                ( 51.55%)  -0.7180* H  22 s(100.00%)
                                           -1.0000
    65. (0.00811) BD*( 1) C   7 - H  23  
                ( 48.05%)   0.6932* C   7 s( 24.56%)p 3.07( 75.44%)
                                            0.0000 -0.4956  0.0031 -0.5289 -0.6889
                ( 51.95%)  -0.7208* H  23 s(100.00%)
                                           -1.0000
    66. (0.00726) BD*( 1) O   8 - H  24  
                ( 40.40%)   0.6356* O   8 s( 16.67%)p 5.00( 83.33%)
                                            0.0000  0.4083 -0.6763  0.0274 -0.6125
                ( 59.60%)  -0.7720* H  24 s(100.00%)
                                            1.0000
    67. (0.00968) BD*( 1) C   9 - C  10  
                ( 50.81%)   0.7128* C   9 s( 24.92%)p 3.01( 75.08%)
                                            0.0000  0.4992 -0.4143  0.5651  0.5097
                ( 49.19%)  -0.7014* C  10 s( 25.89%)p 2.86( 74.11%)
                                            0.0001  0.5088  0.4530 -0.5375 -0.4970
    68. (0.01014) BD*( 1) C   9 - C  11  
                ( 50.87%)   0.7132* C   9 s( 24.99%)p 3.00( 75.01%)
                                            0.0000  0.4999 -0.3223 -0.7936  0.1282
                ( 49.13%)  -0.7009* C  11 s( 25.75%)p 2.88( 74.25%)
                                            0.0001  0.5074  0.3649  0.7722 -0.1146
    69. (0.01186) BD*( 1) C   9 - H  25  
                ( 49.37%)   0.7027* C   9 s( 24.65%)p 3.06( 75.35%)
                                            0.0000 -0.4965  0.1155 -0.2256  0.8302
                ( 50.63%)  -0.7115* H  25 s(100.00%)
                                           -1.0000
    70. (0.00563) BD*( 1) C  10 - H  26  
                ( 48.13%)   0.6938* C  10 s( 24.73%)p 3.04( 75.27%)
                                            0.0000 -0.4973 -0.1136  0.2059 -0.8351
                ( 51.87%)  -0.7202* H  26 s(100.00%)
                                           -1.0000
    71. (0.00806) BD*( 1) C  10 - H  27  
                ( 47.78%)   0.6912* C  10 s( 24.97%)p 3.01( 75.03%)
                                            0.0000 -0.4997 -0.2612 -0.8153  0.1321
                ( 52.22%)  -0.7226* H  27 s(100.00%)
                                           -1.0000
    72. (0.00520) BD*( 1) C  10 - H  28  
                ( 48.29%)   0.6949* C  10 s( 24.42%)p 3.10( 75.58%)
                                            0.0000 -0.4942  0.8448  0.0638  0.1951
[...]
   14      -0.0900       -0.4763       0.3863        -1.0188       0.9288
   16       5.5385      -10.0093      15.5478        -2.2821       7.8206
   17       0.3360       -0.1533       0.4892        -0.6929       1.0288
   23      -1.2421       -5.0488       3.8066        -8.8506       7.6084
   24      -1.5637       -4.7017       3.1379        -9.1486       7.5848
   25       5.5780       -3.3495       8.9275        -5.2112      10.7892
   26       0.9387       -0.3956       1.3344        -0.1068       1.0455
   27       0.7034       -0.5017       1.2051        -0.2602       0.9636
   29       0.9109       -0.4847       1.3956        -0.1481       1.0590
   30       0.7591       -0.4649       1.2240        -0.2162       0.9753
   40     199.9171       -0.0011     199.9181         0.0018     199.9152
 Sum      211.7282      -25.7817     237.5099       -29.0456     240.7738

 Contributions to Isotropic shielding for atom   10 (   220.0853 ppm):
                         Standard Origin              Atomic Origin
 NLMO      Total    Paramagnetic  Diamagnetic   Paramagnetic  Diamagnetic
   17      -0.2380       -0.0952      -0.1428        -1.2182       0.9802
   23       4.3803      -10.7145      15.0947        -3.5421       7.9224
   24      -0.4863        0.2244      -0.7107        -1.3037       0.8174
   26       5.9545       -4.1158      10.0703        -5.1938      11.1482
   27       5.8826       -5.1155      10.9981        -5.3965      11.2791
   28       4.0035        2.1320       1.8715        -7.0448      11.0484
   31      -0.2217       -0.8844       0.6627        -1.1811       0.9594
   41     200.0762       -0.0038     200.0800         0.0021     200.0741
 Sum      219.3511      -18.5727     237.9238       -24.8781     244.2292

 Contributions to Isotropic shielding for atom   11 (   221.5570 ppm):
                         Standard Origin              Atomic Origin
 NLMO      Total    Paramagnetic  Diamagnetic   Paramagnetic  Diamagnetic
   12      -0.1234        0.1888      -0.3122        -1.1684       1.0450
   23      -0.4762        0.2345      -0.7108        -1.2748       0.7986
   24       4.9095      -10.8124      15.7219        -3.0292       7.9387
   25       0.2746       -0.0470       0.3217        -0.7672       1.0418
   28      -0.2000       -0.7477       0.5478        -1.1436       0.9436
   29       6.3363       -4.0194      10.3557        -4.8122      11.1485
   30       5.7970       -4.3935      10.1905        -5.3296      11.1266
   31       4.4369        2.5411       1.8957        -6.6816      11.1184
   42     200.0730       -0.0039     200.0769         0.0023     200.0707
 Sum      221.0275      -17.0595     238.0871       -24.2043     245.2318

 Contributions to Isotropic shielding for atom   12 (    32.3172 ppm):
                         Standard Origin              Atomic Origin
 NLMO      Total    Paramagnetic  Diamagnetic   Paramagnetic  Diamagnetic
    1       1.4804       -0.8584       2.3388         0.4872       0.9932
    2      26.2969        0.1719      26.1250         0.4167      25.8802
    3       1.8753        2.1657      -0.2903         0.0406       1.8347
    4       1.9051        1.6403       0.2648         0.0705       1.8346
    6      -0.1243        0.7125      -0.8368        -1.0413       0.9170
 Sum       31.4334        3.8319      27.6015        -0.0263      31.4598

 Contributions to Isotropic shielding for atom   13 (    32.4896 ppm):
                         Standard Origin              Atomic Origin
 NLMO      Total    Paramagnetic  Diamagnetic   Paramagnetic  Diamagnetic
    1       1.4593       -0.6737       2.1330         0.4663       0.9930
    2       1.9471        2.1750      -0.2279         0.1037       1.8434
    3      26.3653        0.1595      26.2058         0.4469      25.9183
    4       1.8804        1.7700       0.1104         0.0398       1.8406
    5      -0.1501        0.7914      -0.9416        -1.0149       0.8648
 Sum       31.5020        4.2223      27.2797         0.0418      31.4602

 Contributions to Isotropic shielding for atom   14 (    32.6855 ppm):
                         Standard Origin              Atomic Origin
 NLMO      Total    Paramagnetic  Diamagnetic   Paramagnetic  Diamagnetic
    1       1.6317       -1.1807       2.8124         0.7556       0.8761
    2       1.9800        1.7987       0.1813         0.1516       1.8285
    3       1.9233        1.9454      -0.0221         0.0947       1.8285
    4      26.3608        0.2598      26.1010         0.4485      25.9123
 Sum       31.8958        2.8232      29.0726         1.4504      30.4454

 Contributions to Isotropic shielding for atom   15 (    32.5463 ppm):
                         Standard Origin              Atomic Origin
 NLMO      Total    Paramagnetic  Diamagnetic   Paramagnetic  Diamagnetic
    1       0.7973        2.0492      -1.2519        -0.1879       0.9853
    2       0.2589       -1.0312       1.2902        -0.7042       0.9631
    3       0.2604       -1.0314       1.2918        -0.7113       0.9717
    5       1.4622        0.2103       1.2520         0.5991       0.8631
    6       1.5959        0.0243       1.5715         0.7040       0.8919
    7      26.3984        0.0654      26.3330         0.3414      26.0569
   21      -0.0238       -0.3576       0.3338        -1.1448       1.1210
 Sum       30.7493       -0.0711      30.8204        -1.1036      31.8530

 Contributions to Isotropic shielding for atom   16 (    32.0956 ppm):
                         Standard Origin              Atomic Origin
 NLMO      Total    Paramagnetic  Diamagnetic   Paramagnetic  Diamagnetic
    8       1.0554       -0.0269       1.0823         0.1046       0.9508
    9       0.8495        0.4988       0.3507        -0.2410       1.0905
   10       0.4989        1.0022      -0.5033        -0.9964       1.4953
   11      26.8311        0.3277      26.5034         0.7033      26.1278
   12      -0.1066       -0.2288       0.1222        -1.0688       0.9622
   20      -0.0201       -0.7889       0.7688        -1.1377       1.1176
   22       0.1259       -1.1111       1.2370        -0.9487       1.0746
 Sum       29.2341       -0.3270      29.5611        -3.5847      32.8188

 Contributions to Isotropic shielding for atom   17 (    32.6160 ppm):
                         Standard Origin              Atomic Origin
 NLMO      Total    Paramagnetic  Diamagnetic   Paramagnetic  Diamagnetic
   12       1.3519        0.3010       1.0509         0.4111       0.9408
   13       1.0195        1.1076      -0.0881        -0.1034       1.1230
   14      26.4686        0.0434      26.4252         0.4280      26.0406
   15       2.1079        1.5582       0.5497         0.3890       1.7189
   16      -0.1437        0.0084      -0.1520        -1.1185       0.9749
   18      -0.0507       -0.7587       0.7080        -1.2143       1.1636
   24       0.0025       -0.5816       0.5842        -1.0464       1.0489
   30      -0.3688       -1.6469       1.2780        -0.8942       0.5254
 Sum       30.3873        0.0314      30.3559        -3.1487      33.5360

 Contributions to Isotropic shielding for atom   18 (    32.3390 ppm):
                         Standard Origin              Atomic Origin
 NLMO      Total    Paramagnetic  Diamagnetic   Paramagnetic  Diamagnetic
   12       1.2672        0.2985       0.9687         0.1972       1.0700
   13       0.9955        1.1916      -0.1961        -0.0604       1.0559
   14       2.0911        1.5054       0.5857         0.3688       1.7223
   15      26.4128        0.0012      26.4116         0.4263      25.9865
   17       0.0472       -0.1145       0.1617        -0.9763       1.0234
   19      -0.0624       -0.7694       0.7071        -1.1877       1.1254
   29      -0.1140       -1.0543       0.9404        -1.0004       0.8864
   30      -0.0992       -1.0148       0.9156        -0.9505       0.8513
 Sum       30.5382        0.0436      30.4946        -3.1831      33.7213

 Contributions to Isotropic shielding for atom   19 (    32.5273 ppm):
                         Standard Origin              Atomic Origin
 NLMO      Total    Paramagnetic  Diamagnetic   Paramagnetic  Diamagnetic
    8       1.3251        0.5599       0.7652         0.4125       0.9127
    9      -0.1462       -0.5180       0.3718        -1.0484       0.9022
   10       0.1123       -0.3727       0.4849        -0.9913       1.1036
   12       1.2021        0.5825       0.6196         0.2335       0.9686
   15       0.0655       -0.5943       0.6598        -0.9676       1.0331
   16       1.0030        1.1098      -0.1068        -0.1010       1.1040
   17      26.3719        0.0779      26.2940         0.3836      25.9883
   23      -0.0459       -0.8937       0.8478        -1.0932       1.0473
   26      -0.0698       -1.4052       1.3354        -1.0029       0.9331
   29      -0.0501       -1.0475       0.9974        -0.8919       0.8418
 Sum       29.7678       -2.5013      32.2691        -5.0667      34.8346

 Contributions to Isotropic shielding for atom   20 (    32.7740 ppm):
                         Standard Origin              Atomic Origin
 NLMO      Total    Paramagnetic  Diamagnetic   Paramagnetic  Diamagnetic
    4      -0.0357       -1.3103       1.2745        -0.9200       0.8843
    5       1.1749        0.6331       0.5418         0.3049       0.8700
   13       1.3780        0.0613       1.3167         0.4227       0.9554
   14      -0.1077       -0.2200       0.1123        -1.2795       1.1718
   18      26.5039        0.0875      26.4164         0.4293      26.0745
   19       1.9519        1.9757      -0.0238         0.1643       1.7875
 Sum       30.8653        1.2273      29.6380        -0.8784      31.7436

 Contributions to Isotropic shielding for atom   21 (    32.4521 ppm):
                         Standard Origin              Atomic Origin
 NLMO      Total    Paramagnetic  Diamagnetic   Paramagnetic  Diamagnetic
    3      -0.0743       -1.4260       1.3517        -0.9650       0.8906
    5       1.0039        1.1607      -0.1569         0.1277       0.8762
   13       1.2545        0.6752       0.5794         0.2488       1.0057
   15      -0.0703        0.0179      -0.0881        -1.2382       1.1680
   18       2.0365        1.7811       0.2554         0.2817       1.7547
   19      26.4289       -0.0394      26.4683         0.4919      25.9370
 Sum       30.5792        2.1695      28.4097        -1.0531      31.6322

 Contributions to Isotropic shielding for atom   22 (    32.1498 ppm):
                         Standard Origin              Atomic Origin
 NLMO      Total    Paramagnetic  Diamagnetic   Paramagnetic  Diamagnetic
    1      -0.1510       -0.2892       0.1382        -1.2017       1.0507
    4      -0.0020       -1.3290       1.3269        -0.9421       0.9401
    6       0.9997        1.2105      -0.2108         0.1207       0.8790
    9       1.1926        0.6005       0.5922         0.1845       1.0081
   10       0.0330        0.1505      -0.1174        -1.2136       1.2467
   11      -0.0914       -0.0837      -0.0078        -1.1668       1.0753
   20      26.3771       -0.0498      26.4268         0.4729      25.9041
   21       2.0347        1.7406       0.2941         0.1351       1.8996
 Sum       30.3926        1.9503      28.4423        -3.6110      34.0036

 Contributions to Isotropic shielding for atom   23 (    31.8481 ppm):
                         Standard Origin              Atomic Origin
 NLMO      Total    Paramagnetic  Diamagnetic   Paramagnetic  Diamagnetic
    2      -0.0694       -1.3137       1.2444        -0.9211       0.8517
    6       1.0173        0.7811       0.2362        -0.0227       1.0400
    7       0.0378       -0.4685       0.5063        -1.0013       1.0391
    9       1.3710        0.3623       1.0087         0.5072       0.8638
   10       0.0233       -0.2204       0.2437        -1.7631       1.7864
   20       1.9355        1.7870       0.1485         0.1094       1.8261
   21      26.1028        0.1029      25.9999         0.4351      25.6677
   43      -0.4561       -0.0544      -0.4017         0.5725      -1.0286
 Sum       29.9622        0.9762      28.9860        -2.0840      32.0461

 Contributions to Isotropic shielding for atom   24 (    34.6557 ppm):
                         Standard Origin              Atomic Origin
 NLMO      Total    Paramagnetic  Diamagnetic   Paramagnetic  Diamagnetic
   10       1.5150        1.6218      -0.1068         0.7754       0.7396
   11      -0.0299        0.1739      -0.2039        -1.1912       1.1612
   16      -0.0396       -0.1145       0.0749        -1.0668       1.0272
   22      22.9603       -0.5154      23.4757        -0.1748      23.1351
   23      -0.0419       -0.3664       0.3245        -1.0797       1.0378
   27      -0.4439       -1.3473       0.9034        -0.7344       0.2905
   43       3.9511        1.1651       2.7860         2.0273       1.9238
   44       5.5634        2.5803       2.9831         2.3393       3.2241
 Sum       33.4344        3.1975      30.2369         0.8951      32.5394

 Contributions to Isotropic shielding for atom   25 (    33.0340 ppm):
                         Standard Origin              Atomic Origin
 NLMO      Total    Paramagnetic  Diamagnetic   Paramagnetic  Diamagnetic
    8      -0.1940        0.1688      -0.3628        -1.0894       0.8954
   10      -0.0810        0.0280      -0.1090        -1.1127       1.0317
   16       1.6623       -0.3385       2.0007         0.6637       0.9986
   23       0.9872        1.7008      -0.7136         0.0097       0.9775
   24       0.9318        1.7744      -0.8426        -0.0785       1.0103
   25      26.6722        0.0603      26.6119         0.4190      26.2532
 Sum       29.9785        3.3939      26.5847        -1.1881      31.1666

 Contributions to Isotropic shielding for atom   26 (    32.5169 ppm):
                         Standard Origin              Atomic Origin
 NLMO      Total    Paramagnetic  Diamagnetic   Paramagnetic  Diamagnetic
   23       1.5870       -0.7197       2.3067         0.6501       0.9369
   24      -0.1343        0.3545      -0.4888        -1.0644       0.9301
   26      26.2955        0.2712      26.0243         0.4092      25.8863
   27       2.0529        0.6599       1.3930         0.1970       1.8560
   28       1.8579        2.2033      -0.3454         0.0530       1.8049
 Sum       31.6589        2.7691      28.8898         0.2448      31.4141

 Contributions to Isotropic shielding for atom   27 (    32.2255 ppm):
                         Standard Origin              Atomic Origin
 NLMO      Total    Paramagnetic  Diamagnetic   Paramagnetic  Diamagnetic
    8      -0.1147        0.1512      -0.2658        -1.0080       0.8934
   22      -0.1976       -0.2954       0.0978        -1.2944       1.0968
   23       1.5424       -0.9727       2.5151         0.5912       0.9512
   26       2.0077        0.6259       1.3819         0.1370       1.8707
   27      26.1952        0.2711      25.9241         0.4104      25.7848
   28       1.8116        1.9656      -0.1540        -0.0900       1.9016
 Sum       31.2446        1.7456      29.4990        -1.2540      32.4986

 Contributions to Isotropic shielding for atom   28 (    32.5926 ppm):
                         Standard Origin              Atomic Origin
 NLMO      Total    Paramagnetic  Diamagnetic   Paramagnetic  Diamagnetic
   23       1.1821        0.5123       0.6698         0.1789       1.0032
   24      -0.2031        0.7387      -0.9418        -1.2983       1.0952
   26       1.9477        1.8588       0.0889         0.0985       1.8493
   27       1.9699        1.7301       0.2398         0.0714       1.8986
   28      26.4667       -0.0010      26.4677         0.4846      25.9821
   31      -0.1479       -1.1003       0.9524        -1.0148       0.8669
 Sum       31.2156        3.7386      27.4769        -1.4797      32.6952

 Contributions to Isotropic shielding for atom   29 (    32.5794 ppm):
                         Standard Origin              Atomic Origin
 NLMO      Total    Paramagnetic  Diamagnetic   Paramagnetic  Diamagnetic
   12      -0.0645        0.2079      -0.2724        -1.0329       0.9684
   24       1.5477       -0.9157       2.4634         0.6012       0.9466
   29      26.3042        0.2835      26.0207         0.4046      25.8995
   30       2.0552        0.7770       1.2782         0.2745       1.7806
   31       1.8823        2.1982      -0.3158         0.0688       1.8136
 Sum       31.7249        2.5508      29.1741         0.3162      31.4087

 Contributions to Isotropic shielding for atom   30 (    32.4642 ppm):
                         Standard Origin              Atomic Origin
 NLMO      Total    Paramagnetic  Diamagnetic   Paramagnetic  Diamagnetic
   12      -0.0702        0.2103      -0.2804        -1.1196       1.0494
   24       1.5267       -0.9813       2.5081         0.5398       0.9869
   29       2.0576        0.7228       1.3348         0.2300       1.8276
   30      26.3302        0.2199      26.1103         0.4061      25.9241
   31       1.8186        2.0785      -0.2600        -0.0829       1.9014
 Sum       31.6629        2.2502      29.4127        -0.0266      31.6895

 Contributions to Isotropic shielding for atom   31 (    32.5880 ppm):
                         Standard Origin              Atomic Origin
 NLMO      Total    Paramagnetic  Diamagnetic   Paramagnetic  Diamagnetic
   23      -0.2178        0.7761      -0.9939        -1.3235       1.1058
   24       1.2671        0.3957       0.8714         0.2829       0.9841
   28      -0.1285       -0.9415       0.8130        -1.0048       0.8763
   29       1.9704        1.8247       0.1456         0.1187       1.8517
   30       1.9496        1.8595       0.0901         0.0629       1.8867
   31      26.3640       -0.0239      26.3879         0.4622      25.9018
 Sum       31.2048        3.8907      27.3141        -1.4017      32.6065
 
 1\1\GINC-COMPUTE-10-5\SP\RHF\STO-3G\C10H20O1\YTSAI.IQUIR\03-Aug-2021\0
 \\# rhf/STO-3G nmr pop=nbo\\comment\\0,1\C,0,-1.849908378,-0.410898553
 ,-3.217543433\C,0,-1.281930869,-0.29498416,-1.804862242\C,0,0.90798207
 9,-0.748018852,-0.5296825\C,0,-0.431452526,1.300039047,-0.020350897\C,
 0,0.168249849,0.011356794,0.596762526\C,0,-0.921307925,1.149299137,-1.
 466097996\C,0,-0.06471448,-1.213672711,-1.625282869\O,0,1.60907143,-1.
 89600609,-0.076895482\C,0,1.035404773,0.292050036,1.867202767\C,0,1.13
 7078995,-0.941428556,2.78052136\C,0,0.495111942,1.443685022,2.73059801
 \H,0,-2.118997405,-1.448133606,-3.443255146\H,0,-2.751923315,0.2008298
 56,-3.324199959\H,0,-1.12499338,-0.076638075,-3.967501984\H,0,-2.06586
 8108,-0.622365774,-1.10850418\H,0,1.650419736,-0.078547926,-0.98427322
 7\H,0,0.307037759,2.111009344,-0.006950945\H,0,-1.273378493,1.62923641
 8,0.601449611\H,0,-0.670940179,-0.618499168,0.926481531\H,0,-0.1340786
 51,1.497396551,-2.148093061\H,0,-1.779830538,1.812560167,-1.626604691\
 H,0,0.500452415,-1.298139532,-2.563189604\H,0,-0.418246519,-2.23204138
 ,-1.414907139\H,0,2.444345721,-1.590652002,0.316097415\H,0,2.048120708
 ,0.567974359,1.546722337\H,0,0.14570438,-1.25920022,3.122183243\H,0,1.
 611055699,-1.794677831,2.294590754\H,0,1.737648729,-0.714785177,3.6688
 69305\H,0,-0.545960782,1.266222334,3.021171998\H,0,0.550574254,2.40308
 2618,2.20814601\H,0,1.085273078,1.553947932,3.647398491\\Version=EM64L
 -G09RevC.01\State=1-A\HF=-459.6096015\RMSD=9.801e-09\Dipole=0.12751,0.
 5069053,0.0364615\Quadrupole=2.7442658,-2.8982381,0.1539723,1.1281157,
 0.3095636,-0.3553657\PG=C01 [X(C10H20O1)]\\@


 KNOWLEDGE IS EXPERIMENT'S DAUGHTER.
 -- LEONARDO DA VINCI, IN "PENSIERI" CA. 1492
 Job cpu time:  0 days  0 hours  0 minutes 23.7 seconds.
 File lengths (MBytes):  RWF=      5 Int=      0 D2E=      0 Chk=      1 Scr=      1
 Normal termination of Gaussian 09 at Tue Aug  3 16:37:31 2021.
