 Entering Gaussian System, Link 0=g09
 Input=/home/ytsai.iquir/menthol/03_menthol_M0016_MMFF_NMR_rhf_STO-3G_nbo.gjc
 Output=/home/ytsai.iquir/menthol/03_menthol_M0016_MMFF_NMR_rhf_STO-3G_nbo.log
 Initial command:
 /share/apps/Gaussian09/EM64T.SSE4.2-enabled/g09/l1.exe /tmp/Gau-1701.inp -scrdir=/tmp/
 Entering Link 1 = /share/apps/Gaussian09/EM64T.SSE4.2-enabled/g09/l1.exe PID=      1702.
  
 Copyright (c) 1988,1990,1992,1993,1995,1998,2003,2009,2011,
            Gaussian, Inc.  All Rights Reserved.
  
 This is part of the Gaussian(R) 09 program.  It is based on
 the Gaussian(R) 03 system (copyright 2003, Gaussian, Inc.),
 the Gaussian(R) 98 system (copyright 1998, Gaussian, Inc.),
 the Gaussian(R) 94 system (copyright 1995, Gaussian, Inc.),
 the Gaussian 92(TM) system (copyright 1992, Gaussian, Inc.),
 the Gaussian 90(TM) system (copyright 1990, Gaussian, Inc.),
 the Gaussian 88(TM) system (copyright 1988, Gaussian, Inc.),
 the Gaussian 86(TM) system (copyright 1986, Carnegie Mellon
 University), and the Gaussian 82(TM) system (copyright 1983,
 Carnegie Mellon University). Gaussian is a federally registered
 trademark of Gaussian, Inc.
  
 This software contains proprietary and confidential information,
 including trade secrets, belonging to Gaussian, Inc.
  
 This software is provided under written license and may be
 used, copied, transmitted, or stored only in accord with that
 written license.
  
 The following legend is applicable only to US Government
 contracts under FAR:
  
                    RESTRICTED RIGHTS LEGEND
  
 Use, reproduction and disclosure by the US Government is
 subject to restrictions as set forth in subparagraphs (a)
 and (c) of the Commercial Computer Software - Restricted
 Rights clause in FAR 52.227-19.
  
 Gaussian, Inc.
 340 Quinnipiac St., Bldg. 40, Wallingford CT 06492
  
  
 ---------------------------------------------------------------
 Warning -- This program may not be used in any manner that
 competes with the business of Gaussian, Inc. or will provide
 assistance to any competitor of Gaussian, Inc.  The licensee
 of this program is prohibited from giving any competitor of
 Gaussian, Inc. access to this program.  By using this program,
 the user acknowledges that Gaussian, Inc. is engaged in the
 business of creating and licensing software in the field of
 computational chemistry and represents and warrants to the
 licensee that it is not a competitor of Gaussian, Inc. and that
 it will not use this program in any manner prohibited above.
 ---------------------------------------------------------------
  

 Cite this work as:
 Gaussian 09, Revision C.01,
 M. J. Frisch, G. W. Trucks, H. B. Schlegel, G. E. Scuseria, 
 M. A. Robb, J. R. Cheeseman, G. Scalmani, V. Barone, B. Mennucci, 
 G. A. Petersson, H. Nakatsuji, M. Caricato, X. Li, H. P. Hratchian, 
 A. F. Izmaylov, J. Bloino, G. Zheng, J. L. Sonnenberg, M. Hada, 
 M. Ehara, K. Toyota, R. Fukuda, J. Hasegawa, M. Ishida, T. Nakajima, 
 Y. Honda, O. Kitao, H. Nakai, T. Vreven, J. A. Montgomery, Jr., 
 J. E. Peralta, F. Ogliaro, M. Bearpark, J. J. Heyd, E. Brothers, 
 K. N. Kudin, V. N. Staroverov, T. Keith, R. Kobayashi, J. Normand, 
 K. Raghavachari, A. Rendell, J. C. Burant, S. S. Iyengar, J. Tomasi, 
 M. Cossi, N. Rega, J. M. Millam, M. Klene, J. E. Knox, J. B. Cross, 
 V. Bakken, C. Adamo, J. Jaramillo, R. Gomperts, R. E. Stratmann, 
 O. Yazyev, A. J. Austin, R. Cammi, C. Pomelli, J. W. Ochterski, 
 R. L. Martin, K. Morokuma, V. G. Zakrzewski, G. A. Voth, 
 P. Salvador, J. J. Dannenberg, S. Dapprich, A. D. Daniels, 
 O. Farkas, J. B. Foresman, J. V. Ortiz, J. Cioslowski, 
 and D. J. Fox, Gaussian, Inc., Wallingford CT, 2010.
 
 ******************************************
 Gaussian 09:  EM64L-G09RevC.01 23-Sep-2011
                 3-Aug-2021 
 ******************************************
 %nprocshared=4
 Will use up to    4 processors via shared memory.
 ------------------------
 # rhf/STO-3G nmr pop=nbo
 ------------------------
 1/38=1/1;
 2/12=2,17=6,18=5,40=1/2;
 3/6=3,11=1,16=1,25=1,30=1,116=1/1,2,8,3;
 4//1;
 5/5=2,38=5/2;
 8/6=1,10=90,11=11/1;
 10/13=100,45=16/2;
 6/7=2,8=2,9=2,10=2,28=1,64=1/1,7;
 99/9=1/99;
 -------
 comment
 -------
 Charge =  0 Multiplicity = 1
 Symbolic Z-Matrix:
 6                     0.0921    0.91826  -2.88053 
 6                    -1.04177   0.16684  -2.17839 
 6                     0.31339  -0.96359  -0.31849 
 6                    -0.86015   1.23355   0.13266 
 6                    -0.39885  -0.10393   0.74883 
 6                    -1.72373   1.02971  -1.11132 
 6                    -0.55641  -1.15074  -1.56758 
 8                     0.60424  -2.25509   0.20653 
 6                     0.41585   0.15504   2.05428 
 6                     1.82628   0.7003    1.81392 
 6                     0.49087  -1.07717   2.96258 
 1                     0.53002   0.29995  -3.67146 
 1                    -0.28546   1.83444  -3.34708 
 1                     0.89593   1.19986  -2.19429 
 1                    -1.78878  -0.07187  -2.94668 
 1                     1.26472  -0.50254  -0.6039 
 1                     0.00316   1.85633  -0.12523 
 1                    -1.44158   1.79862   0.87153 
 1                    -1.30623  -0.64548   1.05509 
 1                    -1.99838   2.00475  -1.53105 
 1                    -2.66236   0.54585  -0.81137 
 1                    -0.00826  -1.73868  -2.31493 
 1                    -1.42725  -1.76654  -1.30312 
 1                     1.07885  -2.7527   -0.48096 
 1                    -0.13076   0.91694   2.62739 
 1                     2.46859  -0.03843   1.32416 
 1                     1.81082   1.60399   1.19845 
 1                     2.2997    0.96371   2.76643 
 1                     1.16247  -1.84389   2.5668 
 1                    -0.49894  -1.52198   3.10696 
 1                     0.87195  -0.79548   3.95078 
 
                          Input orientation:                          
 ---------------------------------------------------------------------
 Center     Atomic      Atomic             Coordinates (Angstroms)
 Number     Number       Type             X           Y           Z
 ---------------------------------------------------------------------
      1          6           0        0.092100    0.918262   -2.880527
      2          6           0       -1.041775    0.166844   -2.178392
      3          6           0        0.313390   -0.963591   -0.318495
      4          6           0       -0.860148    1.233551    0.132664
      5          6           0       -0.398854   -0.103928    0.748826
      6          6           0       -1.723733    1.029705   -1.111318
      7          6           0       -0.556413   -1.150741   -1.567583
      8          8           0        0.604242   -2.255085    0.206529
      9          6           0        0.415849    0.155042    2.054282
     10          6           0        1.826275    0.700295    1.813915
     11          6           0        0.490871   -1.077172    2.962581
     12          1           0        0.530015    0.299947   -3.671465
     13          1           0       -0.285455    1.834436   -3.347077
     14          1           0        0.895931    1.199860   -2.194289
     15          1           0       -1.788784   -0.071874   -2.946682
     16          1           0        1.264719   -0.502544   -0.603900
     17          1           0        0.003157    1.856328   -0.125229
     18          1           0       -1.441577    1.798624    0.871530
     19          1           0       -1.306227   -0.645483    1.055092
     20          1           0       -1.998381    2.004749   -1.531053
     21          1           0       -2.662365    0.545846   -0.811366
     22          1           0       -0.008260   -1.738684   -2.314932
     23          1           0       -1.427251   -1.766538   -1.303120
     24          1           0        1.078845   -2.752705   -0.480958
     25          1           0       -0.130756    0.916937    2.627387
     26          1           0        2.468593   -0.038430    1.324165
     27          1           0        1.810822    1.603991    1.198450
     28          1           0        2.299700    0.963711    2.766435
     29          1           0        1.162466   -1.843888    2.566796
     30          1           0       -0.498943   -1.521985    3.106956
     31          1           0        0.871947   -0.795480    3.950778
 ---------------------------------------------------------------------
                    Distance matrix (angstroms):
                    1          2          3          4          5
     1  C    0.000000
     2  C    1.530783   0.000000
     3  C    3.186589   2.563898   0.000000
     4  C    3.175769   2.551829   2.531436   0.000000
     5  C    3.802382   3.009197   1.544501   1.543145   0.000000
     6  C    2.537671   1.532397   2.958322   1.528013   2.549620
     7  C    2.534791   1.531240   1.533559   2.944138   2.546840
     8  O    4.456719   3.776634   1.424150   3.784241   2.434701
     9  C    5.003965   4.476643   2.625244   2.546363   1.560456
    10  C    5.009258   4.944572   3.099115   3.213695   2.594685
    11  C    6.187301   5.506921   3.287834   3.895269   2.576728
    12  H    1.095292   2.171983   3.589689   4.156389   4.534852
    13  H    1.095258   2.172258   4.166519   3.577699   4.532828
    14  H    1.093785   2.195923   2.922067   2.915418   3.469619
    15  H    2.126610   1.097852   3.481618   3.471148   3.948380
    16  H    2.928611   2.871763   1.095011   2.841059   2.180880
    17  H    2.911966   2.856871   2.843508   1.095288   2.183618
    18  H    4.147907   3.482035   3.482225   1.096945   2.173023
    19  H    4.459789   3.344432   2.147345   2.140241   1.100185
    20  H    2.715078   2.170723   3.952926   2.158304   3.493258
    21  H    3.465141   2.153767   3.372897   2.147584   2.824869
    22  H    2.718333   2.172058   2.165639   3.943428   3.494510
    23  H    3.464793   2.157002   2.155003   3.373961   2.834141
    24  H    4.495286   3.987741   1.952753   4.475094   3.272917
    25  H    5.512421   4.948545   3.523048   2.618377   2.154770
    26  H    4.923659   4.963136   2.863417   3.757410   2.925330
    27  H    4.479094   4.648199   3.337050   2.899518   2.828748
    28  H    6.063312   6.020944   4.144480   4.122403   3.534515
    29  H    6.200685   5.605224   3.133809   4.414363   2.961453
    30  H    6.492618   5.575097   3.564463   4.070609   2.753486
    31  H    7.086029   6.492697   4.308937   4.657802   3.513642
                    6          7          8          9         10
     6  C    0.000000
     7  C    2.514987   0.000000
     8  O    4.236276   2.390433   0.000000
     9  C    3.919677   3.970928   3.042761   0.000000
    10  C    4.611730   4.531895   3.579292   1.531137   0.000000
    11  C    5.093138   4.650226   2.999359   1.532640   2.502424
    12  H    3.488019   2.776895   4.644625   5.728718   5.650660
    13  H    2.777562   3.485871   5.490343   5.699725   5.690476
    14  H    2.839792   2.833265   4.217304   4.401418   4.144973
    15  H    2.141557   2.141169   4.520589   5.470058   6.027286
    16  H    3.396485   2.159946   2.040692   2.866868   2.758260
    17  H    2.153561   3.381711   4.168343   2.795525   2.901802
    18  H    2.145352   3.928300   4.589135   2.747780   3.573971
    19  H    2.770181   2.774154   2.638327   2.145872   3.492779
    20  H    1.096504   3.469543   5.285738   4.701547   5.245799
    21  H    1.097780   2.808079   4.421770   4.223751   5.202292
    22  H    3.472105   1.097579   2.645675   4.780805   5.134347
    23  H    2.818450   1.098865   2.577728   4.285048   5.136789
    24  H    4.749571   2.533991   0.972375   3.914332   4.212874
    25  H    4.065489   4.696195   4.057401   1.098959   2.130409
    26  H    4.964684   4.330139   3.104590   2.187295   1.094597
    27  H    4.261210   4.565445   4.163197   2.185830   1.093482
    28  H    5.588322   5.604641   4.448409   2.170254   1.095816
    29  H    5.487824   4.530794   2.459991   2.194500   2.735022
    30  H    5.079869   4.689610   3.188562   2.181143   3.466572
    31  H    5.974418   5.711281   4.027594   2.169842   2.777458
                   11         12         13         14         15
    11  C    0.000000
    12  H    6.775585   0.000000
    13  H    6.992276   1.767731   0.000000
    14  H    5.651748   1.767989   1.768412   0.000000
    15  H    6.413021   2.457721   2.460555   3.064490   0.000000
    16  H    3.694431   3.254802   3.922950   2.358712   3.872724
    17  H    4.286940   3.908412   3.234823   2.347127   3.858705
    18  H    4.046857   5.174167   4.374305   3.901501   4.265917
    19  H    2.656017   5.158097   5.154713   4.337427   4.071373
    20  H    5.990606   3.725654   2.502212   3.076487   2.521963
    21  H    5.178780   4.293241   3.706750   3.873200   2.388366
    22  H    5.342178   2.507178   3.729524   3.076875   2.519450
    23  H    4.727644   3.702743   4.295168   3.871804   2.388281
    24  H    3.874414   4.449633   5.578334   4.311812   4.635725
    25  H    2.115478   6.363397   6.046483   4.937883   5.898902
    26  H    2.770339   5.369255   5.736977   4.047980   6.030465
    27  H    3.470312   5.201641   5.010918   3.537092   5.740018
    28  H    2.734144   6.709614   6.694492   5.160922   7.101256
    29  H    1.093407   6.626608   7.113399   5.657153   6.499873
    30  H    1.094730   7.094024   7.277752   6.120238   6.357125
    31  H    1.095949   7.708143   7.843132   6.460945   7.428193
                   16         17         18         19         20
    16  H    0.000000
    17  H    2.717525   0.000000
    18  H    3.846596   1.756164   0.000000
    19  H    3.063079   3.060507   2.454725   0.000000
    20  H    4.218288   2.450412   2.474858   3.767089   0.000000
    21  H    4.069908   3.048467   2.427327   2.596544   1.757049
    22  H    2.464985   4.209399   4.971970   3.773177   4.311420
    23  H    3.055044   4.069232   4.176085   2.613919   3.821093
    24  H    2.261169   4.746244   5.375532   3.533894   5.762412
    25  H    3.795193   2.911577   2.361917   2.508984   4.686574
    26  H    2.319946   3.430631   4.343854   3.832777   5.681611
    27  H    2.825629   2.254652   3.274577   3.846645   4.703278
    28  H    3.818409   3.799026   4.276084   4.303593   6.166495
    29  H    3.444267   4.720445   4.787783   3.133029   6.449445
    30  H    4.233227   4.702353   4.112436   2.372785   6.016419
    31  H    4.580957   4.939708   4.643656   3.626560   6.791947
                   21         22         23         24         25
    21  H    0.000000
    22  H    3.811044   0.000000
    23  H    2.667292   1.743007   0.000000
    24  H    4.998626   2.360825   2.815847   0.000000
    25  H    4.286231   5.611938   4.932628   4.958953   0.000000
    26  H    5.588256   4.718972   5.006654   3.543608   3.060675
    27  H    5.016815   5.179420   5.301267   4.726203   2.506717
    28  H    6.131669   6.200799   6.156761   5.084073   2.434880
    29  H    5.634904   5.021249   4.657131   3.181469   3.049304
    30  H    4.930474   5.448357   4.513351   4.108189   2.512745
    31  H    6.080176   6.397149   5.816589   4.849105   2.385194
                   26         27         28         29         30
    26  H    0.000000
    27  H    1.773700   0.000000
    28  H    1.764356   1.762821   0.000000
    29  H    2.551427   3.765715   3.035749   0.000000
    30  H    3.766371   4.330027   3.758596   1.776422   0.000000
    31  H    3.165676   3.770180   2.556541   1.760388   1.766121
                   31
    31  H    0.000000
 Stoichiometry    C10H20O
 Framework group  C1[X(C10H20O)]
 Deg. of freedom    87
 Full point group                 C1      NOp   1
 Largest Abelian subgroup         C1      NOp   1
 Largest concise Abelian subgroup C1      NOp   1
                         Standard orientation:                         
 ---------------------------------------------------------------------
 Center     Atomic      Atomic             Coordinates (Angstroms)
 Number     Number       Type             X           Y           Z
 ---------------------------------------------------------------------
      1          6           0       -2.812938   -0.224533    1.194365
      2          6           0       -2.400769    0.113240   -0.240669
      3          6           0       -0.014031    0.935681    0.207262
      4          6           0       -0.413025   -1.470291   -0.471171
      5          6           0        0.566780   -0.280533   -0.547037
      6          6           0       -1.810655   -1.100772   -0.966053
      7          6           0       -1.421661    1.289598   -0.287837
      8          8           0        0.815776    2.076297    0.010745
      9          6           0        1.994153   -0.726777   -0.101509
     10          6           0        2.140178   -0.941396    1.407463
     11          6           0        3.093817    0.220968   -0.592940
     12          1           0       -3.277061    0.643568    1.674631
     13          1           0       -3.545758   -1.038479    1.201985
     14          1           0       -1.964741   -0.533160    1.812165
     15          1           0       -3.313854    0.412159   -0.771895
     16          1           0       -0.047169    0.734325    1.283090
     17          1           0       -0.481339   -1.847548    0.554824
     18          1           0       -0.034784   -2.298786   -1.082578
     19          1           0        0.649351   -0.000574   -1.607797
     20          1           0       -2.477126   -1.965247   -0.862039
     21          1           0       -1.755462   -0.879347   -2.039853
     22          1           0       -1.814481    2.136346    0.289562
     23          1           0       -1.351151    1.657225   -1.320979
     24          1           0        0.436186    2.809070    0.525009
     25          1           0        2.193349   -1.693280   -0.585145
     26          1           0        2.045483   -0.002223    1.961656
     27          1           0        1.393691   -1.642874    1.790068
     28          1           0        3.126811   -1.358445    1.638630
     29          1           0        3.100984    1.167318   -0.045300
     30          1           0        2.980855    0.436981   -1.660185
     31          1           0        4.078913   -0.238511   -0.453056
 ---------------------------------------------------------------------
 Rotational constants (GHZ):      1.6934344      0.7533083      0.6552341
 Standard basis: STO-3G (5D, 7F)
 There are    75 symmetry adapted basis functions of A   symmetry.
 Integral buffers will be    131072 words long.
 Raffenetti 1 integral format.
 Two-electron integral symmetry is turned on.
    75 basis functions,   225 primitive gaussians,    75 cartesian basis functions
    44 alpha electrons       44 beta electrons
       nuclear repulsion energy       698.4649143912 Hartrees.
 NAtoms=   31 NActive=   31 NUniq=   31 SFac= 1.00D+00 NAtFMM=   60 NAOKFM=F Big=F
 One-electron integrals computed using PRISM.
 NBasis=    75 RedAO= T  NBF=    75
 NBsUse=    75 1.00D-06 NBFU=    75
 Harris functional with IExCor=  205 diagonalized for initial guess.
 ExpMin= 1.69D-01 ExpMax= 1.31D+02 ExpMxC= 1.31D+02 IAcc=1 IRadAn=         1 AccDes= 0.00D+00
 HarFok:  IExCor=  205 AccDes= 0.00D+00 IRadAn=         1 IDoV= 1
 ScaDFX=  1.000000  1.000000  1.000000  1.000000
 FoFCou: FMM=F IPFlag=           0 FMFlag=      100000 FMFlg1=           0
         NFxFlg=           0 DoJE=T BraDBF=F KetDBF=T FulRan=T
         Omega=  0.000000  0.000000  1.000000  0.000000  0.000000 ICntrl=     500 IOpCl=  0
         NMat0=    1 NMatS0=    1 NMatT0=    0 NMatD0=    1 NMtDS0=    0 NMtDT0=    0
         I1Cent=           4 NGrid=           0.
 Petite list used in FoFCou.
 Initial guess orbital symmetries:
       Occupied  (A) (A) (A) (A) (A) (A) (A) (A) (A) (A) (A) (A)
                 (A) (A) (A) (A) (A) (A) (A) (A) (A) (A) (A) (A)
                 (A) (A) (A) (A) (A) (A) (A) (A) (A) (A) (A) (A)
                 (A) (A) (A) (A) (A) (A) (A) (A)
       Virtual   (A) (A) (A) (A) (A) (A) (A) (A) (A) (A) (A) (A)
                 (A) (A) (A) (A) (A) (A) (A) (A) (A) (A) (A) (A)
                 (A) (A) (A) (A) (A) (A) (A)
 The electronic state of the initial guess is 1-A.
 Requested convergence on RMS density matrix=1.00D-08 within 128 cycles.
 Requested convergence on MAX density matrix=1.00D-06.
 Requested convergence on             energy=1.00D-06.
 No special actions if energy rises.
 Keep R1 ints in memory in canonical form, NReq=4898789.
 SCF Done:  E(RHF) =  -459.619078840     A.U. after   10 cycles
             Convg  =    0.6161D-08             -V/T =  2.0090
 Range of M.O.s used for correlation:     1    75
 NBasis=    75 NAE=    44 NBE=    44 NFC=     0 NFV=     0
 NROrb=     75 NOA=    44 NOB=    44 NVA=    31 NVB=    31
          Differentiating once with respect to magnetic field using GIAOs.
          Electric field/nuclear overlap derivatives assumed to be zero.
          Keep R3 ints in memory in canonical form, NReq=4863575.
 FoFCou: FMM=F IPFlag=           0 FMFlag=           0 FMFlg1=           0
         NFxFlg=           0 DoJE=F BraDBF=F KetDBF=T FulRan=T
         Omega=  0.000000  0.000000  1.000000  0.000000  0.000000 ICntrl=    6100 IOpCl=  0
         NMat0=    1 NMatS0=    1 NMatT0=    0 NMatD0=    1 NMtDS0=    0 NMtDT0=    0
         I1Cent=           7 NGrid=          31.
 Symmetry not used in FoFCou.
          There are     3 degrees of freedom in the 1st order CPHF.  IDoFFX=0.
      3 vectors produced by pass  0 Test12= 4.55D-14 3.33D-08 XBig12= 6.89D+00 4.76D-01.
 AX will form     3 AO Fock derivatives at one time.
      3 vectors produced by pass  1 Test12= 4.55D-14 3.33D-08 XBig12= 1.15D-02 1.33D-02.
      3 vectors produced by pass  2 Test12= 4.55D-14 3.33D-08 XBig12= 8.59D-05 2.62D-03.
      3 vectors produced by pass  3 Test12= 4.55D-14 3.33D-08 XBig12= 1.51D-06 4.50D-04.
      3 vectors produced by pass  4 Test12= 4.55D-14 3.33D-08 XBig12= 1.58D-08 2.18D-05.
      3 vectors produced by pass  5 Test12= 4.55D-14 3.33D-08 XBig12= 1.94D-10 1.68D-06.
      3 vectors produced by pass  6 Test12= 4.55D-14 3.33D-08 XBig12= 2.16D-12 2.08D-07.
 Inverted reduced A of dimension    21 with in-core refinement.
 Calculating GIAO nuclear magnetic shielding tensors.
 SCF GIAO Magnetic shielding tensor (ppm):
      1  C    Isotropic =   223.0527   Anisotropy =    24.1334
   XX=   216.6366   YX=     3.4040   ZX=    -9.0564
   XY=     4.4305   YY=   219.7405   ZY=    -2.3800
   XZ=   -13.1153   YZ=    -1.9691   ZZ=   232.7810
   Eigenvalues:   210.2947   219.7217   239.1416
      2  C    Isotropic =   216.3545   Anisotropy =     3.9358
   XX=   216.1820   YX=     1.5266   ZX=    -3.5039
   XY=     0.8666   YY=   217.8633   ZY=     1.2707
   XZ=    -3.1358   YZ=     1.3571   ZZ=   215.0181
   Eigenvalues:   211.7166   218.3685   218.9783
      3  C    Isotropic =   190.0813   Anisotropy =    43.2764
   XX=   192.2516   YX=    15.5852   ZX=    -4.0667
   XY=    16.1905   YY=   209.1529   ZY=     0.2090
   XZ=    -4.6967   YZ=    -2.9206   ZZ=   168.8394
   Eigenvalues:   167.9744   183.3373   218.9322
      4  C    Isotropic =   217.7292   Anisotropy =    19.9810
   XX=   227.9184   YX=     4.5069   ZX=     4.1791
   XY=     5.3182   YY=   221.8541   ZY=     2.7200
   XZ=     0.2993   YZ=     2.7055   ZZ=   203.4150
   Eigenvalues:   202.9268   219.2109   231.0498
      5  C    Isotropic =   208.7309   Anisotropy =    14.4207
   XX=   217.0808   YX=    -1.1788   ZX=     3.3952
   XY=    -2.5126   YY=   205.1187   ZY=     0.6976
   XZ=     4.1538   YZ=    -1.0642   ZZ=   203.9932
   Eigenvalues:   202.9367   204.9113   218.3447
      6  C    Isotropic =   216.6957   Anisotropy =    11.2574
   XX=   219.7308   YX=    -3.2851   ZX=    -1.5833
   XY=    -3.6501   YY=   217.1673   ZY=     7.8850
   XZ=    -0.8579   YZ=     3.8414   ZZ=   213.1889
   Eigenvalues:   208.8795   217.0070   224.2006
      7  C    Isotropic =   214.4060   Anisotropy =    17.1531
   XX=   224.4131   YX=     6.5332   ZX=     0.1501
   XY=     1.3745   YY=   213.8032   ZY=    -2.2485
   XZ=     3.1755   YZ=     2.1325   ZZ=   205.0017
   Eigenvalues:   204.8414   212.5352   225.8414
      8  O    Isotropic =   356.9380   Anisotropy =    90.7730
   XX=   348.6301   YX=   -43.5733   ZX=   -11.7764
   XY=   -19.1788   YY=   374.5727   ZY=    29.2300
   XZ=   -17.6663   YZ=    44.6595   ZZ=   347.6111
   Eigenvalues:   319.3996   333.9610   417.4533
      9  C    Isotropic =   211.8755   Anisotropy =    18.9730
   XX=   223.3730   YX=    -2.6695   ZX=     1.3320
   XY=    -2.9870   YY=   207.1747   ZY=    -2.0987
   XZ=     5.4106   YZ=    -1.2904   ZZ=   205.0787
   Eigenvalues:   203.9739   207.1285   224.5241
     10  C    Isotropic =   224.0502   Anisotropy =    19.9900
   XX=   218.5866   YX=    -1.5203   ZX=     2.9265
   XY=    -0.0823   YY=   217.5963   ZY=    -4.0574
   XZ=     0.3955   YZ=    -5.7863   ZZ=   235.9677
   Eigenvalues:   216.2957   218.4780   237.3769
     11  C    Isotropic =   220.1495   Anisotropy =    27.6002
   XX=   227.9755   YX=     9.6751   ZX=    -8.3081
   XY=    11.6191   YY=   216.3024   ZY=    -9.0190
   XZ=    -4.7165   YZ=    -6.9682   ZZ=   216.1704
   Eigenvalues:   207.5314   214.3674   238.5496
     12  H    Isotropic =    32.7014   Anisotropy =    13.9754
   XX=    32.0713   YX=    -3.6017   ZX=    -5.6712
   XY=    -3.7897   YY=    32.9240   ZY=     4.1806
   XZ=    -5.9037   YZ=     4.6021   ZZ=    33.1090
   Eigenvalues:    26.7628    29.3231    42.0184
     13  H    Isotropic =    32.6368   Anisotropy =    14.3617
   XX=    35.2680   YX=     6.5031   ZX=    -3.7396
   XY=     6.7935   YY=    33.0486   ZY=    -1.4797
   XZ=    -3.9687   YZ=    -1.9664   ZZ=    29.5937
   Eigenvalues:    26.6468    29.0522    42.2112
     14  H    Isotropic =    32.7103   Anisotropy =     7.9237
   XX=    34.4619   YX=    -1.5191   ZX=     1.4082
   XY=    -1.5715   YY=    27.6769   ZY=    -3.0160
   XZ=     1.4752   YZ=    -3.1003   ZZ=    35.9922
   Eigenvalues:    26.5367    33.6015    37.9928
     15  H    Isotropic =    32.4210   Anisotropy =    15.3640
   XX=    38.9004   YX=    -3.2930   ZX=     5.6653
   XY=    -3.3974   YY=    27.9507   ZY=    -1.8392
   XZ=     5.5181   YZ=    -1.8280   ZZ=    30.4120
   Eigenvalues:    26.9313    27.6681    42.6637
     16  H    Isotropic =    32.1975   Anisotropy =     5.4922
   XX=    31.9152   YX=    -0.2597   ZX=    -0.0909
   XY=    -0.9022   YY=    28.8924   ZY=    -0.5384
   XZ=     1.0327   YZ=    -0.0229   ZZ=    35.7850
   Eigenvalues:    28.7793    31.9542    35.8590
     17  H    Isotropic =    32.6881   Anisotropy =     8.6789
   XX=    32.3607   YX=     0.6349   ZX=     0.5178
   XY=     0.0931   YY=    31.7187   ZY=    -5.3159
   XZ=     0.5026   YZ=    -5.6886   ZZ=    33.9848
   Eigenvalues:    27.1637    32.4265    38.4740
     18  H    Isotropic =    32.5107   Anisotropy =    13.7282
   XX=    31.6728   YX=    -2.3655   ZX=    -0.6907
   XY=    -2.7709   YY=    37.3927   ZY=     6.7505
   XZ=    -0.7087   YZ=     6.6681   ZZ=    28.4666
   Eigenvalues:    24.8163    31.0529    41.6628
     19  H    Isotropic =    32.3756   Anisotropy =     9.5413
   XX=    31.9991   YX=     0.4124   ZX=    -1.2927
   XY=     0.3533   YY=    27.1300   ZY=    -2.0349
   XZ=    -1.8338   YZ=    -1.9617   ZZ=    37.9977
   Eigenvalues:    26.7721    31.6183    38.7365
     20  H    Isotropic =    32.5041   Anisotropy =    14.6352
   XX=    34.1345   YX=     6.4597   ZX=     0.8288
   XY=     6.6667   YY=    36.4087   ZY=     2.6351
   XZ=     0.4010   YZ=     2.1716   ZZ=    26.9693
   Eigenvalues:    26.1758    29.0757    42.2610
     21  H    Isotropic =    32.4591   Anisotropy =    13.3497
   XX=    29.0817   YX=    -0.2003   ZX=     2.1304
   XY=    -0.2781   YY=    27.4420   ZY=     1.3611
   XZ=     2.2207   YZ=     1.3062   ZZ=    40.8535
   Eigenvalues:    27.1808    28.8375    41.3589
     22  H    Isotropic =    32.8381   Anisotropy =    12.8707
   XX=    31.9273   YX=    -3.2750   ZX=    -1.7577
   XY=    -3.4514   YY=    38.4572   ZY=     3.8452
   XZ=    -2.5152   YZ=     4.1624   ZZ=    28.1299
   Eigenvalues:    26.5546    30.5411    41.4186
     23  H    Isotropic =    32.2218   Anisotropy =    12.1046
   XX=    29.2609   YX=     0.0534   ZX=     1.3524
   XY=    -0.0912   YY=    31.8125   ZY=    -6.2459
   XZ=     1.2298   YZ=    -6.1699   ZZ=    35.5920
   Eigenvalues:    26.9575    29.4164    40.2915
     24  H    Isotropic =    35.1202   Anisotropy =    19.2794
   XX=    31.3282   YX=    -0.9853   ZX=    -3.2549
   XY=     0.2743   YY=    44.6664   ZY=     7.2501
   XZ=    -2.3382   YZ=     8.1015   ZZ=    29.3661
   Eigenvalues:    25.1902    32.1974    47.9732
     25  H    Isotropic =    32.4903   Anisotropy =    12.0406
   XX=    31.9823   YX=    -2.9426   ZX=    -1.4370
   XY=    -2.9325   YY=    36.7948   ZY=     5.3575
   XZ=    -1.2636   YZ=     4.9345   ZZ=    28.6938
   Eigenvalues:    26.1945    30.7590    40.5173
     26  H    Isotropic =    32.5675   Anisotropy =     9.3324
   XX=    29.3244   YX=    -1.3012   ZX=     1.7452
   XY=    -1.3679   YY=    33.0537   ZY=     4.4910
   XZ=     2.0834   YZ=     4.3124   ZZ=    35.3243
   Eigenvalues:    27.2280    31.6853    38.7891
     27  H    Isotropic =    32.6319   Anisotropy =    10.6794
   XX=    33.0591   YX=     3.6171   ZX=    -0.7392
   XY=     3.3862   YY=    31.8998   ZY=    -5.7497
   XZ=    -0.9290   YZ=    -6.0889   ZZ=    32.9368
   Eigenvalues:    25.8495    32.2947    39.7515
     28  H    Isotropic =    32.4909   Anisotropy =    14.8144
   XX=    37.2219   YX=    -4.8363   ZX=     4.5882
   XY=    -4.8035   YY=    29.0950   ZY=    -3.4256
   XZ=     4.7375   YZ=    -3.4812   ZZ=    31.1558
   Eigenvalues:    26.2908    28.8147    42.3672
     29  H    Isotropic =    31.9014   Anisotropy =     9.4166
   XX=    32.3695   YX=     2.5662   ZX=    -0.4715
   XY=     2.7213   YY=    36.2179   ZY=     3.0920
   XZ=    -0.3447   YZ=     3.0642   ZZ=    27.1167
   Eigenvalues:    25.9438    31.5812    38.1791
     30  H    Isotropic =    32.3379   Anisotropy =    12.2424
   XX=    31.4027   YX=     1.3417   ZX=    -3.2465
   XY=     1.1399   YY=    27.4594   ZY=    -3.9399
   XZ=    -2.9189   YZ=    -3.4105   ZZ=    38.1515
   Eigenvalues:    26.3008    30.2134    40.4995
     31  H    Isotropic =    32.4276   Anisotropy =    14.9332
   XX=    41.9296   YX=    -2.5574   ZX=    -1.1177
   XY=    -2.2715   YY=    28.0535   ZY=    -0.9858
   XZ=    -0.9163   YZ=    -1.1659   ZZ=    27.2996
   Eigenvalues:    26.2060    28.6937    42.3830
 End of Minotr Frequency-dependent properties file   721 does not exist.
 End of Minotr Frequency-dependent properties file   722 does not exist.

 **********************************************************************

            Population analysis using the SCF density.

 **********************************************************************

 Orbital symmetries:
       Occupied  (A) (A) (A) (A) (A) (A) (A) (A) (A) (A) (A) (A)
                 (A) (A) (A) (A) (A) (A) (A) (A) (A) (A) (A) (A)
                 (A) (A) (A) (A) (A) (A) (A) (A) (A) (A) (A) (A)
                 (A) (A) (A) (A) (A) (A) (A) (A)
       Virtual   (A) (A) (A) (A) (A) (A) (A) (A) (A) (A) (A) (A)
                 (A) (A) (A) (A) (A) (A) (A) (A) (A) (A) (A) (A)
                 (A) (A) (A) (A) (A) (A) (A)
 The electronic state is 1-A.
 Alpha  occ. eigenvalues --  -20.23687 -11.08506 -11.04867 -11.04219 -11.04115
 Alpha  occ. eigenvalues --  -11.03711 -11.03678 -11.03621 -11.03337 -11.02645
 Alpha  occ. eigenvalues --  -11.01713  -1.27845  -1.08219  -1.03348  -0.96590
 Alpha  occ. eigenvalues --   -0.94504  -0.88404  -0.88122  -0.79427  -0.79016
 Alpha  occ. eigenvalues --   -0.72061  -0.69573  -0.61950  -0.60637  -0.59364
 Alpha  occ. eigenvalues --   -0.57564  -0.56394  -0.55260  -0.53165  -0.51237
 Alpha  occ. eigenvalues --   -0.51223  -0.49690  -0.49022  -0.47918  -0.46392
 Alpha  occ. eigenvalues --   -0.45632  -0.44492  -0.42819  -0.41682  -0.40419
 Alpha  occ. eigenvalues --   -0.39563  -0.38489  -0.36588  -0.32968
 Alpha virt. eigenvalues --    0.53225   0.55405   0.56582   0.60152   0.61351
 Alpha virt. eigenvalues --    0.62195   0.63394   0.65374   0.66684   0.66925
 Alpha virt. eigenvalues --    0.68365   0.68745   0.70363   0.70883   0.72469
 Alpha virt. eigenvalues --    0.72874   0.73816   0.74677   0.76588   0.76774
 Alpha virt. eigenvalues --    0.77538   0.78552   0.78916   0.79467   0.80591
 Alpha virt. eigenvalues --    0.81275   0.82464   0.82907   0.83773   0.84470
 Alpha virt. eigenvalues --    0.84748
          Condensed to atoms (all electrons):
              1          2          3          4          5          6
     1  C    4.743727   0.364400  -0.001420  -0.001479   0.000079  -0.023745
     2  C    0.364400   4.742643  -0.018852  -0.021718  -0.002954   0.363253
     3  C   -0.001420  -0.018852   4.740353  -0.021368   0.358777  -0.003842
     4  C   -0.001479  -0.021718  -0.021368   4.757763   0.361199   0.363305
     5  C    0.000079  -0.002954   0.358777   0.361199   4.772390  -0.021111
     6  C   -0.023745   0.363253  -0.003842   0.363305  -0.021111   4.754846
     7  C   -0.024055   0.361348   0.358389  -0.003963  -0.021968  -0.024129
     8  O    0.000001   0.000256   0.267399   0.000212  -0.016500   0.000002
     9  C    0.000000   0.000002  -0.018102  -0.022026   0.358395   0.000641
    10  C    0.000000   0.000000  -0.002535  -0.001306  -0.020370   0.000003
    11  C    0.000000   0.000000  -0.000300   0.000653  -0.021277  -0.000004
    12  H    0.382299  -0.020330   0.000019   0.000006  -0.000002   0.001252
    13  H    0.382422  -0.020234   0.000008   0.000027  -0.000001  -0.002268
    14  H    0.382550  -0.019896  -0.000412  -0.000405   0.000045  -0.001642
    15  H   -0.025120   0.383092   0.001178   0.001242   0.000005  -0.023238
    16  H   -0.000468  -0.000816   0.375196  -0.001247  -0.023911   0.000109
    17  H   -0.000472  -0.001395  -0.001663   0.381313  -0.021848  -0.023057
    18  H    0.000010   0.001242   0.001140   0.383064  -0.020903  -0.022009
    19  H   -0.000001   0.000100  -0.024473  -0.023663   0.379061  -0.001981
    20  H   -0.003026  -0.021300   0.000016  -0.021571   0.001195   0.382486
    21  H    0.001301  -0.022524   0.000035  -0.023395  -0.001760   0.381484
    22  H   -0.003056  -0.020772  -0.021902   0.000015   0.001112   0.001242
    23  H    0.001300  -0.021425  -0.022786   0.000090  -0.001899  -0.001381
    24  H    0.000002   0.000004  -0.040988  -0.000038   0.002428   0.000000
    25  H    0.000000   0.000000   0.001048  -0.004118  -0.023596   0.000032
    26  H    0.000000   0.000000  -0.000676   0.000036  -0.001354  -0.000001
    27  H   -0.000001   0.000001  -0.000043  -0.000643  -0.001741  -0.000004
    28  H    0.000000   0.000000   0.000026   0.000011   0.001117   0.000000
    29  H    0.000000   0.000000  -0.000042  -0.000005  -0.000874   0.000000
    30  H    0.000000   0.000000   0.000022   0.000026  -0.002902  -0.000001
    31  H    0.000000   0.000000  -0.000009  -0.000016   0.001159   0.000000
              7          8          9         10         11         12
     1  C   -0.024055   0.000001   0.000000   0.000000   0.000000   0.382299
     2  C    0.361348   0.000256   0.000002   0.000000   0.000000  -0.020330
     3  C    0.358389   0.267399  -0.018102  -0.002535  -0.000300   0.000019
     4  C   -0.003963   0.000212  -0.022026  -0.001306   0.000653   0.000006
     5  C   -0.021968  -0.016500   0.358395  -0.020370  -0.021277  -0.000002
     6  C   -0.024129   0.000002   0.000641   0.000003  -0.000004   0.001252
     7  C    4.785217  -0.020832   0.000548   0.000009  -0.000004  -0.002259
     8  O   -0.020832   7.847594  -0.000172   0.000010  -0.001091   0.000000
     9  C    0.000548  -0.000172   4.737221   0.364278   0.364382   0.000000
    10  C    0.000009   0.000010   0.364278   4.742128  -0.025983   0.000000
    11  C   -0.000004  -0.001091   0.364382  -0.025983   4.742755   0.000000
    12  H   -0.002259   0.000000   0.000000   0.000000   0.000000   0.631849
    13  H    0.001258   0.000000   0.000000   0.000000   0.000000  -0.021502
    14  H   -0.001656   0.000000   0.000002   0.000000   0.000000  -0.022086
    15  H   -0.023232  -0.000005   0.000001   0.000000   0.000000  -0.002505
    16  H   -0.026966  -0.018937  -0.001844  -0.000681   0.000022   0.000043
    17  H    0.000090   0.000000  -0.001846  -0.000647   0.000001  -0.000003
    18  H    0.000012  -0.000004  -0.002477   0.000056   0.000024   0.000000
    19  H   -0.001983  -0.000581  -0.023548   0.001111  -0.003815   0.000000
    20  H    0.001240   0.000000  -0.000013   0.000000   0.000000   0.000033
    21  H   -0.001382  -0.000001   0.000004  -0.000001   0.000000  -0.000035
    22  H    0.380717  -0.001072  -0.000012   0.000000   0.000000   0.000186
    23  H    0.380224  -0.000909   0.000002   0.000000   0.000000   0.000027
    24  H   -0.003043   0.257762  -0.000007  -0.000004   0.000053   0.000000
    25  H   -0.000013  -0.000006   0.381626  -0.024789  -0.025662   0.000000
    26  H    0.000004   0.000047  -0.020292   0.382526  -0.002525   0.000000
    27  H   -0.000002   0.000002  -0.019850   0.382186   0.001325   0.000000
    28  H    0.000000  -0.000001  -0.019868   0.382424  -0.002225   0.000000
    29  H    0.000000   0.000239  -0.019769  -0.002879   0.382792   0.000000
    30  H   -0.000002   0.000005  -0.020141   0.001300   0.382488   0.000000
    31  H    0.000000   0.000016  -0.020445  -0.001655   0.381218   0.000000
             13         14         15         16         17         18
     1  C    0.382422   0.382550  -0.025120  -0.000468  -0.000472   0.000010
     2  C   -0.020234  -0.019896   0.383092  -0.000816  -0.001395   0.001242
     3  C    0.000008  -0.000412   0.001178   0.375196  -0.001663   0.001140
     4  C    0.000027  -0.000405   0.001242  -0.001247   0.381313   0.383064
     5  C   -0.000001   0.000045   0.000005  -0.023911  -0.021848  -0.020903
     6  C   -0.002268  -0.001642  -0.023238   0.000109  -0.023057  -0.022009
     7  C    0.001258  -0.001656  -0.023232  -0.026966   0.000090   0.000012
     8  O    0.000000   0.000000  -0.000005  -0.018937   0.000000  -0.000004
     9  C    0.000000   0.000002   0.000001  -0.001844  -0.001846  -0.002477
    10  C    0.000000   0.000000   0.000000  -0.000681  -0.000647   0.000056
    11  C    0.000000   0.000000   0.000000   0.000022   0.000001   0.000024
    12  H   -0.021502  -0.022086  -0.002505   0.000043  -0.000003   0.000000
    13  H    0.629756  -0.021923  -0.002458   0.000001   0.000051  -0.000004
    14  H   -0.021923   0.631549   0.001915  -0.000570  -0.000570  -0.000003
    15  H   -0.002458   0.001915   0.649266  -0.000020  -0.000007  -0.000032
    16  H    0.000001  -0.000570  -0.000020   0.662798   0.000239  -0.000006
    17  H    0.000051  -0.000570  -0.000007   0.000239   0.644474  -0.023642
    18  H   -0.000004  -0.000003  -0.000032  -0.000006  -0.023642   0.639164
    19  H    0.000000  -0.000003  -0.000016   0.001834   0.001889  -0.002661
    20  H    0.000195   0.000019  -0.001367  -0.000006  -0.002765  -0.001852
    21  H    0.000029  -0.000003  -0.003565   0.000002   0.001988  -0.003079
    22  H    0.000035   0.000015  -0.001398  -0.002726  -0.000008   0.000002
    23  H   -0.000035  -0.000002  -0.003611   0.001914   0.000004  -0.000010
    24  H    0.000000   0.000000  -0.000001  -0.003630   0.000000   0.000001
    25  H    0.000000   0.000000   0.000000   0.000002   0.000036   0.000065
    26  H    0.000000   0.000000   0.000000  -0.000892   0.000033  -0.000001
    27  H    0.000000   0.000001   0.000000  -0.000033  -0.000473   0.000039
    28  H    0.000000   0.000000   0.000000   0.000006  -0.000008  -0.000004
    29  H    0.000000   0.000000   0.000000   0.000016   0.000000  -0.000001
    30  H    0.000000   0.000000   0.000000   0.000001   0.000000   0.000005
    31  H    0.000000   0.000000   0.000000  -0.000001   0.000000  -0.000001
             19         20         21         22         23         24
     1  C   -0.000001  -0.003026   0.001301  -0.003056   0.001300   0.000002
     2  C    0.000100  -0.021300  -0.022524  -0.020772  -0.021425   0.000004
     3  C   -0.024473   0.000016   0.000035  -0.021902  -0.022786  -0.040988
     4  C   -0.023663  -0.021571  -0.023395   0.000015   0.000090  -0.000038
     5  C    0.379061   0.001195  -0.001760   0.001112  -0.001899   0.002428
     6  C   -0.001981   0.382486   0.381484   0.001242  -0.001381   0.000000
     7  C   -0.001983   0.001240  -0.001382   0.380717   0.380224  -0.003043
     8  O   -0.000581   0.000000  -0.000001  -0.001072  -0.000909   0.257762
     9  C   -0.023548  -0.000013   0.000004  -0.000012   0.000002  -0.000007
    10  C    0.001111   0.000000  -0.000001   0.000000   0.000000  -0.000004
    11  C   -0.003815   0.000000   0.000000   0.000000   0.000000   0.000053
    12  H    0.000000   0.000033  -0.000035   0.000186   0.000027   0.000000
    13  H    0.000000   0.000195   0.000029   0.000035  -0.000035   0.000000
    14  H   -0.000003   0.000019  -0.000003   0.000015  -0.000002   0.000000
    15  H   -0.000016  -0.001367  -0.003565  -0.001398  -0.003611  -0.000001
    16  H    0.001834  -0.000006   0.000002  -0.002726   0.001914  -0.003630
    17  H    0.001889  -0.002765   0.001988  -0.000008   0.000004   0.000000
    18  H   -0.002661  -0.001852  -0.003079   0.000002  -0.000010   0.000001
    19  H    0.647225   0.000009   0.000333   0.000000   0.000247   0.000012
    20  H    0.000009   0.639425  -0.023321  -0.000033   0.000008   0.000000
    21  H    0.000333  -0.023321   0.645303   0.000004   0.000175   0.000000
    22  H    0.000000  -0.000033   0.000004   0.647575  -0.024590   0.000502
    23  H    0.000247   0.000008   0.000175  -0.024590   0.637940  -0.000039
    24  H    0.000012   0.000000   0.000000   0.000502  -0.000039   0.610886
    25  H   -0.001167  -0.000002   0.000003   0.000000   0.000000   0.000002
    26  H   -0.000002   0.000000   0.000000   0.000001   0.000000   0.000007
    27  H    0.000007   0.000001   0.000000   0.000000   0.000000   0.000000
    28  H   -0.000028   0.000000   0.000000   0.000000   0.000000   0.000000
    29  H    0.000030   0.000000   0.000000   0.000000   0.000000   0.000023
    30  H    0.000184   0.000000   0.000000   0.000000   0.000000   0.000000
    31  H    0.000050   0.000000   0.000000   0.000000   0.000000  -0.000002
             25         26         27         28         29         30
     1  C    0.000000   0.000000  -0.000001   0.000000   0.000000   0.000000
     2  C    0.000000   0.000000   0.000001   0.000000   0.000000   0.000000
     3  C    0.001048  -0.000676  -0.000043   0.000026  -0.000042   0.000022
     4  C   -0.004118   0.000036  -0.000643   0.000011  -0.000005   0.000026
     5  C   -0.023596  -0.001354  -0.001741   0.001117  -0.000874  -0.002902
     6  C    0.000032  -0.000001  -0.000004   0.000000   0.000000  -0.000001
     7  C   -0.000013   0.000004  -0.000002   0.000000   0.000000  -0.000002
     8  O   -0.000006   0.000047   0.000002  -0.000001   0.000239   0.000005
     9  C    0.381626  -0.020292  -0.019850  -0.019868  -0.019769  -0.020141
    10  C   -0.024789   0.382526   0.382186   0.382424  -0.002879   0.001300
    11  C   -0.025662  -0.002525   0.001325  -0.002225   0.382792   0.382488
    12  H    0.000000   0.000000   0.000000   0.000000   0.000000   0.000000
    13  H    0.000000   0.000000   0.000000   0.000000   0.000000   0.000000
    14  H    0.000000   0.000000   0.000001   0.000000   0.000000   0.000000
    15  H    0.000000   0.000000   0.000000   0.000000   0.000000   0.000000
    16  H    0.000002  -0.000892  -0.000033   0.000006   0.000016   0.000001
    17  H    0.000036   0.000033  -0.000473  -0.000008   0.000000   0.000000
    18  H    0.000065  -0.000001   0.000039  -0.000004  -0.000001   0.000005
    19  H   -0.001167  -0.000002   0.000007  -0.000028   0.000030   0.000184
    20  H   -0.000002   0.000000   0.000001   0.000000   0.000000   0.000000
    21  H    0.000003   0.000000   0.000000   0.000000   0.000000   0.000000
    22  H    0.000000   0.000001   0.000000   0.000000   0.000000   0.000000
    23  H    0.000000   0.000000   0.000000   0.000000   0.000000   0.000000
    24  H    0.000002   0.000007   0.000000   0.000000   0.000023   0.000000
    25  H    0.657091   0.001920  -0.001949  -0.002855   0.001936  -0.001547
    26  H    0.001920   0.629955  -0.021908  -0.021982   0.000379   0.000016
    27  H   -0.001949  -0.021908   0.634565  -0.022017   0.000023  -0.000037
    28  H   -0.002855  -0.021982  -0.022017   0.631065  -0.000029   0.000027
    29  H    0.001936   0.000379   0.000023  -0.000029   0.614662  -0.020924
    30  H   -0.001547   0.000016  -0.000037   0.000027  -0.020924   0.630909
    31  H   -0.003717  -0.000005   0.000013   0.000107  -0.022400  -0.021989
             31
     1  C    0.000000
     2  C    0.000000
     3  C   -0.000009
     4  C   -0.000016
     5  C    0.001159
     6  C    0.000000
     7  C    0.000000
     8  O    0.000016
     9  C   -0.020445
    10  C   -0.001655
    11  C    0.381218
    12  H    0.000000
    13  H    0.000000
    14  H    0.000000
    15  H    0.000000
    16  H   -0.000001
    17  H    0.000000
    18  H   -0.000001
    19  H    0.000050
    20  H    0.000000
    21  H    0.000000
    22  H    0.000000
    23  H    0.000000
    24  H   -0.000002
    25  H   -0.003717
    26  H   -0.000005
    27  H    0.000013
    28  H    0.000107
    29  H   -0.022400
    30  H   -0.021989
    31  H    0.639886
 Mulliken atomic charges:
              1
     1  C   -0.175245
     2  C   -0.024123
     3  C    0.075806
     4  C   -0.102002
     5  C   -0.031991
     6  C   -0.100241
     7  C   -0.113567
     8  O   -0.313433
     9  C   -0.016691
    10  C   -0.175182
    11  C   -0.172826
    12  H    0.053007
    13  H    0.054643
    14  H    0.053074
    15  H    0.049877
    16  H    0.040573
    17  H    0.048289
    18  H    0.051863
    19  H    0.051830
    20  H    0.050629
    21  H    0.048405
    22  H    0.044163
    23  H    0.054760
    24  H    0.176070
    25  H    0.045658
    26  H    0.054714
    27  H    0.050537
    28  H    0.054234
    29  H    0.066819
    30  H    0.052561
    31  H    0.047790
 Sum of Mulliken atomic charges =   0.00000
 Mulliken charges with hydrogens summed into heavy atoms:
              1
     1  C   -0.014521
     2  C    0.025754
     3  C    0.116379
     4  C   -0.001850
     5  C    0.019839
     6  C   -0.001207
     7  C   -0.014644
     8  O   -0.137363
     9  C    0.028967
    10  C   -0.015698
    11  C   -0.005656
 Sum of Mulliken charges with hydrogens summed into heavy atoms =   0.00000
 Electronic spatial extent (au):  <R**2>=           2029.3842
 Charge=              0.0000 electrons
 Dipole moment (field-independent basis, Debye):
    X=             -1.2153    Y=             -0.1083    Z=              0.6418  Tot=              1.3786
 Quadrupole moment (field-independent basis, Debye-Ang):
   XX=            -69.4133   YY=            -66.2012   ZZ=            -67.1761
   XY=             -2.5194   XZ=              0.5256   YZ=              2.3942
 Traceless Quadrupole moment (field-independent basis, Debye-Ang):
   XX=             -1.8165   YY=              1.3957   ZZ=              0.4208
   XY=             -2.5194   XZ=              0.5256   YZ=              2.3942
 Octapole moment (field-independent basis, Debye-Ang**2):
  XXX=              2.3848  YYY=             20.3945  ZZZ=             -2.4080  XYY=             -3.2897
  XXY=             -0.2578  XXZ=              0.2990  XZZ=              1.6911  YZZ=              5.9709
  YYZ=              6.5677  XYZ=              1.5622
 Hexadecapole moment (field-independent basis, Debye-Ang**3):
 XXXX=          -1656.0893 YYYY=           -528.9898 ZZZZ=           -364.4940 XXXY=              0.9283
 XXXZ=              7.7759 YYYX=              4.5225 YYYZ=             19.6448 ZZZX=             -0.2814
 ZZZY=              1.4646 XXYY=           -371.2092 XXZZ=           -342.1953 YYZZ=           -151.5679
 XXYZ=              2.1007 YYXZ=              0.9030 ZZXY=              2.4126
 N-N= 6.984649143912D+02 E-N=-2.469021953840D+03  KE= 4.555275204428D+02
 ******************************Gaussian NBO Version 3.1******************************
             N A T U R A L   A T O M I C   O R B I T A L   A N D
          N A T U R A L   B O N D   O R B I T A L   A N A L Y S I S
 ******************************Gaussian NBO Version 3.1******************************
       /RESON  / : Allow strongly delocalized NBO set
       /NLMO   / : Form Natural Localized Molecular Orbitals
       /NMR /    : Analyze NMR Sheilding Tensor 

 Analyzing the SCF density

 Job title: comment                                                         

 Storage needed:     19864 in NPA,     23691 in NBO,     45933 in NLMO (  33549317 available)


 NATURAL POPULATIONS:  Natural atomic orbital occupancies 
                                                          
   NAO  Atom  No  lang   Type(AO)    Occupancy      Energy
 ----------------------------------------------------------
     1    C    1  S      Cor( 1S)     1.99997     -10.96697
     2    C    1  S      Val( 2S)     1.07962      -0.18411
     3    C    1  px     Val( 2p)     1.02606       0.07996
     4    C    1  py     Val( 2p)     1.02776       0.08108
     5    C    1  pz     Val( 2p)     0.99699       0.08652

     6    C    2  S      Cor( 1S)     1.99997     -10.99112
     7    C    2  S      Val( 2S)     1.07869      -0.19313
     8    C    2  px     Val( 2p)     0.98196       0.10134
     9    C    2  py     Val( 2p)     0.96215       0.10623
    10    C    2  pz     Val( 2p)     0.96289       0.10742

    11    C    3  S      Cor( 1S)     1.99989     -11.03405
    12    C    3  S      Val( 2S)     1.08638      -0.21506
    13    C    3  px     Val( 2p)     0.90671       0.10481
    14    C    3  py     Val( 2p)     0.87783       0.10694
    15    C    3  pz     Val( 2p)     0.98570       0.09051

    16    C    4  S      Cor( 1S)     1.99996     -10.97469
    17    C    4  S      Val( 2S)     1.08481      -0.18940
    18    C    4  px     Val( 2p)     0.97418       0.09862
    19    C    4  py     Val( 2p)     0.98978       0.09438
    20    C    4  pz     Val( 2p)     1.01550       0.09318

    21    C    5  S      Cor( 1S)     1.99995     -10.98787
    22    C    5  S      Val( 2S)     1.10131      -0.20823
    23    C    5  px     Val( 2p)     0.95831       0.10791
    24    C    5  py     Val( 2p)     0.95474       0.11075
    25    C    5  pz     Val( 2p)     0.99574       0.09800

    26    C    6  S      Cor( 1S)     1.99996     -10.97479
    27    C    6  S      Val( 2S)     1.08282      -0.18801
    28    C    6  px     Val( 2p)     0.98382       0.09791
    29    C    6  py     Val( 2p)     0.99235       0.09677
    30    C    6  pz     Val( 2p)     1.00420       0.09173

    31    C    7  S      Cor( 1S)     1.99996     -10.97554
    32    C    7  S      Val( 2S)     1.09320      -0.19978
    33    C    7  px     Val( 2p)     0.98426       0.09004
    34    C    7  py     Val( 2p)     0.99031       0.09121
    35    C    7  pz     Val( 2p)     1.02198       0.08281

    36    O    8  S      Cor( 1S)     1.99999     -20.14061
    37    O    8  S      Val( 2S)     1.74820      -0.99758
    38    O    8  px     Val( 2p)     1.63924      -0.24153
    39    O    8  py     Val( 2p)     1.17135      -0.03631
    40    O    8  pz     Val( 2p)     1.77561      -0.29417

    41    C    9  S      Cor( 1S)     1.99996     -10.98540
    42    C    9  S      Val( 2S)     1.08490      -0.18981
    43    C    9  px     Val( 2p)     0.94997       0.11822
    44    C    9  py     Val( 2p)     0.98536       0.10877
    45    C    9  pz     Val( 2p)     0.95558       0.11987

    46    C   10  S      Cor( 1S)     1.99997     -10.96009
    47    C   10  S      Val( 2S)     1.07954      -0.17695
    48    C   10  px     Val( 2p)     1.02854       0.08731
    49    C   10  py     Val( 2p)     1.02722       0.08932
    50    C   10  pz     Val( 2p)     0.99597       0.09216

    51    C   11  S      Cor( 1S)     1.99997     -10.95088
    52    C   11  S      Val( 2S)     1.08127      -0.16860
    53    C   11  px     Val( 2p)     1.00185       0.10148
    54    C   11  py     Val( 2p)     1.02073       0.09867
    55    C   11  pz     Val( 2p)     1.02566       0.09790

    56    H   12  S      Val( 1S)     0.96407       0.07121

    57    H   13  S      Val( 1S)     0.96254       0.07289

    58    H   14  S      Val( 1S)     0.96427       0.07268

    59    H   15  S      Val( 1S)     0.97431       0.06560

    60    H   16  S      Val( 1S)     0.99529       0.04987

    61    H   17  S      Val( 1S)     0.97306       0.07195

    62    H   18  S      Val( 1S)     0.96900       0.07153

    63    H   19  S      Val( 1S)     0.97406       0.07129

    64    H   20  S      Val( 1S)     0.97002       0.07021

    65    H   21  S      Val( 1S)     0.97232       0.06977

    66    H   22  S      Val( 1S)     0.97561       0.05994

    67    H   23  S      Val( 1S)     0.96609       0.07109

    68    H   24  S      Val( 1S)     0.81136       0.07408

    69    H   25  S      Val( 1S)     0.97959       0.07024

    70    H   26  S      Val( 1S)     0.96268       0.08089

    71    H   27  S      Val( 1S)     0.96661       0.07787

    72    H   28  S      Val( 1S)     0.96267       0.07864

    73    H   29  S      Val( 1S)     0.95221       0.10156

    74    H   30  S      Val( 1S)     0.96460       0.08796

    75    H   31  S      Val( 1S)     0.96902       0.08221


 Summary of Natural Population Analysis:                  
                                                          
                                       Natural Population 
                Natural  -----------------------------------------------
    Atom  No    Charge         Core      Valence    Rydberg      Total
 -----------------------------------------------------------------------
      C    1   -0.13041      1.99997     4.13044    0.00000     6.13041
      C    2    0.01434      1.99997     3.98569    0.00000     5.98566
      C    3    0.14350      1.99989     3.85661    0.00000     5.85650
      C    4   -0.06423      1.99996     4.06428    0.00000     6.06423
      C    5   -0.01005      1.99995     4.01010    0.00000     6.01005
      C    6   -0.06314      1.99996     4.06318    0.00000     6.06314
      C    7   -0.08972      1.99996     4.08976    0.00000     6.08972
      O    8   -0.33440      1.99999     6.33441    0.00000     8.33440
      C    9    0.02423      1.99996     3.97581    0.00000     5.97577
      C   10   -0.13124      1.99997     4.13127    0.00000     6.13124
      C   11   -0.12949      1.99997     4.12952    0.00000     6.12949
      H   12    0.03593      0.00000     0.96407    0.00000     0.96407
      H   13    0.03746      0.00000     0.96254    0.00000     0.96254
      H   14    0.03573      0.00000     0.96427    0.00000     0.96427
      H   15    0.02569      0.00000     0.97431    0.00000     0.97431
      H   16    0.00471      0.00000     0.99529    0.00000     0.99529
      H   17    0.02694      0.00000     0.97306    0.00000     0.97306
      H   18    0.03100      0.00000     0.96900    0.00000     0.96900
      H   19    0.02594      0.00000     0.97406    0.00000     0.97406
      H   20    0.02998      0.00000     0.97002    0.00000     0.97002
      H   21    0.02768      0.00000     0.97232    0.00000     0.97232
      H   22    0.02439      0.00000     0.97561    0.00000     0.97561
      H   23    0.03391      0.00000     0.96609    0.00000     0.96609
      H   24    0.18864      0.00000     0.81136    0.00000     0.81136
      H   25    0.02041      0.00000     0.97959    0.00000     0.97959
      H   26    0.03732      0.00000     0.96268    0.00000     0.96268
      H   27    0.03339      0.00000     0.96661    0.00000     0.96661
      H   28    0.03733      0.00000     0.96267    0.00000     0.96267
      H   29    0.04779      0.00000     0.95221    0.00000     0.95221
      H   30    0.03540      0.00000     0.96460    0.00000     0.96460
      H   31    0.03098      0.00000     0.96902    0.00000     0.96902
 =======================================================================
   * Total *    0.00000     21.99955    66.00045    0.00000    88.00000

                                 Natural Population      
 --------------------------------------------------------
   Core                      21.99955 ( 99.9979% of  22)
   Valence                   66.00045 (100.0007% of  66)
   Natural Minimal Basis     88.00000 (100.0000% of  88)
   Natural Rydberg Basis      0.00000 (  0.0000% of  88)
 --------------------------------------------------------

    Atom  No          Natural Electron Configuration
 ----------------------------------------------------------------------------
      C    1      [core]2S( 1.08)2p( 3.05)
      C    2      [core]2S( 1.08)2p( 2.91)
      C    3      [core]2S( 1.09)2p( 2.77)
      C    4      [core]2S( 1.08)2p( 2.98)
      C    5      [core]2S( 1.10)2p( 2.91)
      C    6      [core]2S( 1.08)2p( 2.98)
      C    7      [core]2S( 1.09)2p( 3.00)
      O    8      [core]2S( 1.75)2p( 4.59)
      C    9      [core]2S( 1.08)2p( 2.89)
      C   10      [core]2S( 1.08)2p( 3.05)
      C   11      [core]2S( 1.08)2p( 3.05)
      H   12            1S( 0.96)
      H   13            1S( 0.96)
      H   14            1S( 0.96)
      H   15            1S( 0.97)
      H   16            1S( 1.00)
      H   17            1S( 0.97)
      H   18            1S( 0.97)
      H   19            1S( 0.97)
      H   20            1S( 0.97)
      H   21            1S( 0.97)
      H   22            1S( 0.98)
      H   23            1S( 0.97)
      H   24            1S( 0.81)
      H   25            1S( 0.98)
      H   26            1S( 0.96)
      H   27            1S( 0.97)
      H   28            1S( 0.96)
      H   29            1S( 0.95)
      H   30            1S( 0.96)
      H   31            1S( 0.97)


 NATURAL BOND ORBITAL ANALYSIS:

                       Occupancies       Lewis Structure    Low   High
           Occ.    -------------------  -----------------   occ   occ
  Cycle   Thresh.   Lewis   Non-Lewis     CR  BD  3C  LP    (L)   (NL)   Dev
 =============================================================================
   1(1)    1.90    87.63758   0.36242     11  31   0   2     0      0    0.02
 -----------------------------------------------------------------------------

 Structure accepted: No low occupancy Lewis orbitals

 --------------------------------------------------------
   Core                     21.99954 ( 99.998% of  22)
   Valence Lewis            65.63804 ( 99.452% of  66)
  ==================       ============================
   Total Lewis              87.63758 ( 99.588% of  88)
  -----------------------------------------------------
   Valence non-Lewis         0.36242 (  0.412% of  88)
   Rydberg non-Lewis         0.00000 (  0.000% of  88)
  ==================       ============================
   Total non-Lewis           0.36242 (  0.412% of  88)
 --------------------------------------------------------


       (Occupancy)   Bond orbital/ Coefficients/ Hybrids
 ---------------------------------------------------------------------------------
     1. (1.99031) BD ( 1) C   1 - C   2  
                ( 50.96%)   0.7139* C   1 s( 25.83%)p 2.87( 74.17%)
                                            0.0001  0.5083  0.2457  0.1868 -0.8040
                ( 49.04%)   0.7003* C   2 s( 25.10%)p 2.98( 74.90%)
                                            0.0000  0.5010 -0.2013 -0.1985  0.8180
     2. (1.99485) BD ( 1) C   1 - H  12  
                ( 51.80%)   0.7197* C   1 s( 24.60%)p 3.06( 75.40%)
                                            0.0000  0.4960 -0.3640  0.6989  0.3647
                ( 48.20%)   0.6943* H  12 s(100.00%)
                                            1.0000
     3. (1.99486) BD ( 1) C   1 - H  13  
                ( 51.88%)   0.7203* C   1 s( 24.64%)p 3.06( 75.36%)
                                            0.0000  0.4964 -0.5789 -0.6468 -0.0134
                ( 48.12%)   0.6937* H  13 s(100.00%)
                                            1.0000
     4. (1.99504) BD ( 1) C   1 - H  14  
                ( 51.84%)   0.7200* C   1 s( 24.93%)p 3.01( 75.07%)
                                            0.0000  0.4993  0.6871 -0.2415  0.4694
                ( 48.16%)   0.6940* H  14 s(100.00%)
                                            1.0000
     5. (1.98510) BD ( 1) C   2 - C   6  
                ( 49.76%)   0.7054* C   2 s( 25.20%)p 2.97( 74.80%)
                                            0.0000  0.5020  0.3470 -0.6898 -0.3895
                ( 50.24%)   0.7088* C   6 s( 25.39%)p 2.94( 74.61%)
                                            0.0001  0.5038 -0.3177  0.6805  0.4267
     6. (1.98397) BD ( 1) C   2 - C   7  
                ( 49.37%)   0.7026* C   2 s( 25.12%)p 2.98( 74.88%)
                                            0.0000  0.5012  0.5660  0.6545 -0.0089
                ( 50.63%)   0.7116* C   7 s( 25.71%)p 2.89( 74.29%)
                                            0.0001  0.5070 -0.5375 -0.6724  0.0426
     7. (1.98439) BD ( 1) C   2 - H  15  
                ( 51.17%)   0.7153* C   2 s( 24.58%)p 3.07( 75.42%)
                                            0.0000  0.4957 -0.7202  0.2375 -0.4233
                ( 48.83%)   0.6988* H  15 s(100.00%)
                                            1.0000
     8. (1.98239) BD ( 1) C   3 - C   5  
                ( 50.67%)   0.7118* C   3 s( 26.69%)p 2.75( 73.31%)
                                            0.0000  0.5167  0.3398 -0.6578 -0.4299
                ( 49.33%)   0.7024* C   5 s( 25.31%)p 2.95( 74.69%)
                                            0.0001  0.5031 -0.3013  0.6720  0.4523
     9. (1.98754) BD ( 1) C   3 - C   7  
                ( 49.27%)   0.7019* C   3 s( 25.46%)p 2.93( 74.54%)
                                            0.0000  0.5046 -0.7928  0.1776 -0.2919
                ( 50.73%)   0.7122* C   7 s( 25.29%)p 2.95( 74.71%)
                                            0.0000  0.5029  0.7822 -0.2277  0.2888
    10. (1.98810) BD ( 1) C   3 - O   8  
                ( 41.01%)   0.6404* C   3 s( 22.32%)p 3.48( 77.68%)
                                            0.0000  0.4725  0.5051  0.7118 -0.1221
                ( 58.99%)   0.7680* O   8 s( 16.58%)p 5.03( 83.42%)
                                            0.0000  0.4071 -0.5636 -0.7002  0.1623
    11. (1.98860) BD ( 1) C   3 - H  16  
                ( 50.57%)   0.7111* C   3 s( 25.52%)p 2.92( 74.48%)
                                            0.0000  0.5052 -0.0280 -0.1704  0.8456
                ( 49.43%)   0.7031* H  16 s(100.00%)
                                            1.0000
    12. (1.98286) BD ( 1) C   4 - C   5  
                ( 50.46%)   0.7104* C   4 s( 25.31%)p 2.95( 74.69%)
                                            0.0001  0.5031  0.5361  0.6767 -0.0400
                ( 49.54%)   0.7038* C   5 s( 24.89%)p 3.02( 75.11%)
                                            0.0000  0.4989 -0.5474 -0.6679  0.0728
    13. (1.98994) BD ( 1) C   4 - C   6  
                ( 49.94%)   0.7067* C   4 s( 25.17%)p 2.97( 74.83%)
                                            0.0000  0.5017 -0.7853  0.2328 -0.2782
                ( 50.06%)   0.7076* C   6 s( 25.32%)p 2.95( 74.68%)
                                            0.0000  0.5032  0.7875 -0.1925  0.2992
    14. (1.98999) BD ( 1) C   4 - H  17  
                ( 51.39%)   0.7169* C   4 s( 24.72%)p 3.05( 75.28%)
                                            0.0000  0.4972 -0.0552 -0.2775  0.8203
                ( 48.61%)   0.6972* H  17 s(100.00%)
                                            1.0000
    15. (1.98926) BD ( 1) C   4 - H  18  
                ( 51.50%)   0.7177* C   4 s( 24.80%)p 3.03( 75.20%)
                                            0.0000  0.4980  0.3047 -0.6410 -0.4982
                ( 48.50%)   0.6964* H  18 s(100.00%)
                                            1.0000
    16. (1.97891) BD ( 1) C   5 - C   9  
                ( 50.31%)   0.7093* C   5 s( 25.48%)p 2.92( 74.52%)
                                            0.0001  0.5048  0.7781 -0.2284  0.2961
                ( 49.69%)   0.7049* C   9 s( 25.42%)p 2.93( 74.58%)
                                            0.0001  0.5042 -0.7886  0.2809 -0.2122
    17. (1.98370) BD ( 1) C   5 - H  19  
                ( 51.21%)   0.7156* C   5 s( 24.32%)p 3.11( 75.68%)
                                            0.0000  0.4932  0.0648  0.2240 -0.8381
                ( 48.79%)   0.6985* H  19 s(100.00%)
                                            1.0000
    18. (1.98973) BD ( 1) C   6 - H  20  
                ( 51.48%)   0.7175* C   6 s( 24.97%)p 3.01( 75.03%)
                                            0.0000  0.4997 -0.5253 -0.6808  0.1045
                ( 48.52%)   0.6966* H  20 s(100.00%)
                                            1.0000
    19. (1.99038) BD ( 1) C   6 - H  21  
                ( 51.38%)   0.7168* C   6 s( 24.32%)p 3.11( 75.68%)
                                            0.0000  0.4932  0.0533  0.1909 -0.8470
                ( 48.62%)   0.6973* H  21 s(100.00%)
                                            1.0000
    20. (1.98880) BD ( 1) C   7 - H  22  
                ( 51.20%)   0.7155* C   7 s( 24.74%)p 3.04( 75.26%)
                                            0.0000  0.4974 -0.3081  0.6519  0.4824
                ( 48.80%)   0.6986* H  22 s(100.00%)
                                            1.0000
    21. (1.98957) BD ( 1) C   7 - H  23  
                ( 51.68%)   0.7189* C   7 s( 24.26%)p 3.12( 75.74%)
                                            0.0000  0.4926  0.0658  0.2664 -0.8259
                ( 48.32%)   0.6951* H  23 s(100.00%)
                                            1.0000
    22. (1.98911) BD ( 1) O   8 - H  24  
                ( 59.43%)   0.7709* O   8 s( 16.76%)p 4.97( 83.24%)
                                            0.0000 -0.4094  0.3858 -0.6631 -0.4939
                ( 40.57%)   0.6369* H  24 s(100.00%)
                                           -1.0000
    23. (1.99024) BD ( 1) C   9 - C  10  
                ( 48.91%)   0.6994* C   9 s( 25.26%)p 2.96( 74.74%)
                                            0.0000  0.5026  0.0561 -0.0971  0.8572
                ( 51.09%)   0.7148* C  10 s( 25.88%)p 2.86( 74.12%)
                                            0.0001  0.5087 -0.0950  0.1257 -0.8464
    24. (1.98956) BD ( 1) C   9 - C  11  
                ( 49.35%)   0.7025* C   9 s( 25.15%)p 2.98( 74.85%)
                                            0.0000  0.5015  0.5951  0.5677 -0.2687
                ( 50.65%)   0.7117* C  11 s( 25.77%)p 2.88( 74.23%)
                                            0.0001  0.5077 -0.6275 -0.5205  0.2785
    25. (1.98384) BD ( 1) C   9 - H  25  
                ( 50.90%)   0.7135* C   9 s( 24.17%)p 3.14( 75.83%)
                                            0.0000  0.4916  0.1444 -0.7677 -0.3847
                ( 49.10%)   0.7007* H  25 s(100.00%)
                                            1.0000
    26. (1.99506) BD ( 1) C  10 - H  26  
                ( 51.91%)   0.7205* C  10 s( 24.82%)p 3.03( 75.18%)
                                            0.0000  0.4982 -0.0831  0.7537  0.4206
                ( 48.09%)   0.6935* H  26 s(100.00%)
                                            1.0000
    27. (1.99452) BD ( 1) C  10 - H  27  
                ( 51.70%)   0.7190* C  10 s( 24.78%)p 3.04( 75.22%)
                                            0.0000  0.4978 -0.6033 -0.5543  0.2845
                ( 48.30%)   0.6950* H  27 s(100.00%)
                                            1.0000
    28. (1.99434) BD ( 1) C  10 - H  28  
                ( 51.85%)   0.7201* C  10 s( 24.53%)p 3.08( 75.47%)
                                            0.0000  0.4953  0.7875 -0.3300  0.1603
                ( 48.15%)   0.6939* H  28 s(100.00%)
                                            1.0000
    29. (1.99581) BD ( 1) C  11 - H  29  
                ( 52.48%)   0.7244* C  11 s( 25.07%)p 2.99( 74.93%)
                                            0.0000  0.5007 -0.0165  0.7444  0.4415
                ( 47.52%)   0.6894* H  29 s(100.00%)
                                            1.0000
    30. (1.99485) BD ( 1) C  11 - H  30  
                ( 51.78%)   0.7196* C  11 s( 24.84%)p 3.03( 75.16%)
                                            0.0000  0.4984 -0.1071  0.1634 -0.8447
                ( 48.22%)   0.6944* H  30 s(100.00%)
                                            1.0000
    31. (1.99471) BD ( 1) C  11 - H  31  
                ( 51.54%)   0.7179* C  11 s( 24.32%)p 3.11( 75.68%)
                                            0.0000  0.4932  0.7710 -0.3850  0.1187
                ( 48.46%)   0.6961* H  31 s(100.00%)
                                            1.0000
    32. (1.99997) CR ( 1) C   1           s(100.00%)
                                            1.0000  0.0000  0.0000  0.0000  0.0001
    33. (1.99997) CR ( 1) C   2           s(100.00%)
                                            1.0000  0.0000  0.0000  0.0000  0.0000
    34. (1.99989) CR ( 1) C   3           s(100.00%)
                                            1.0000  0.0000  0.0000  0.0000  0.0000
    35. (1.99996) CR ( 1) C   4           s(100.00%)
                                            1.0000 -0.0001  0.0000 -0.0001  0.0000
    36. (1.99995) CR ( 1) C   5           s(100.00%)
                                            1.0000 -0.0001  0.0000  0.0000  0.0000
    37. (1.99996) CR ( 1) C   6           s(100.00%)
                                            1.0000  0.0000  0.0000 -0.0001 -0.0001
    38. (1.99996) CR ( 1) C   7           s(100.00%)
                                            1.0000  0.0000  0.0000  0.0001  0.0000
    39. (1.99999) CR ( 1) O   8           s(100.00%)
                                            1.0000  0.0000  0.0000  0.0000  0.0000
    40. (1.99996) CR ( 1) C   9           s(100.00%)
                                            1.0000  0.0000  0.0001  0.0000  0.0000
    41. (1.99997) CR ( 1) C  10           s(100.00%)
                                            1.0000  0.0000  0.0000  0.0000  0.0001
    42. (1.99997) CR ( 1) C  11           s(100.00%)
                                            1.0000  0.0000  0.0001  0.0000  0.0000
    43. (1.99239) LP ( 1) O   8           s( 66.27%)p 0.51( 33.73%)
                                            0.0000  0.8141  0.4302  0.0370 -0.3884
    44. (1.97536) LP ( 2) O   8           s(  0.40%)p99.99( 99.60%)
                                            0.0000  0.0630  0.5903 -0.2621  0.7608
    45. (0.01124) BD*( 1) C   1 - C   2  
                ( 49.04%)   0.7003* C   1 s( 25.83%)p 2.87( 74.17%)
                                           -0.0001 -0.5083 -0.2457 -0.1868  0.8040
                ( 50.96%)  -0.7139* C   2 s( 25.10%)p 2.98( 74.90%)
                                            0.0000 -0.5010  0.2013  0.1985 -0.8180
    46. (0.00495) BD*( 1) C   1 - H  12  
                ( 48.20%)   0.6943* C   1 s( 24.60%)p 3.06( 75.40%)
                                            0.0000 -0.4960  0.3640 -0.6989 -0.3647
                ( 51.80%)  -0.7197* H  12 s(100.00%)
                                           -1.0000
    47. (0.00496) BD*( 1) C   1 - H  13  
                ( 48.12%)   0.6937* C   1 s( 24.64%)p 3.06( 75.36%)
                                            0.0000 -0.4964  0.5789  0.6468  0.0134
                ( 51.88%)  -0.7203* H  13 s(100.00%)
                                           -1.0000
    48. (0.00680) BD*( 1) C   1 - H  14  
                ( 48.16%)   0.6940* C   1 s( 24.93%)p 3.01( 75.07%)
                                            0.0000 -0.4993 -0.6871  0.2415 -0.4694
                ( 51.84%)  -0.7200* H  14 s(100.00%)
                                           -1.0000
    49. (0.01636) BD*( 1) C   2 - C   6  
                ( 50.24%)   0.7088* C   2 s( 25.20%)p 2.97( 74.80%)
                                            0.0000  0.5020  0.3470 -0.6898 -0.3895
                ( 49.76%)  -0.7054* C   6 s( 25.39%)p 2.94( 74.61%)
                                            0.0001  0.5038 -0.3177  0.6805  0.4267
    50. (0.01592) BD*( 1) C   2 - C   7  
                ( 50.63%)   0.7116* C   2 s( 25.12%)p 2.98( 74.88%)
                                            0.0000  0.5012  0.5660  0.6545 -0.0089
                ( 49.37%)  -0.7026* C   7 s( 25.71%)p 2.89( 74.29%)
                                            0.0001  0.5070 -0.5375 -0.6724  0.0426
    51. (0.01049) BD*( 1) C   2 - H  15  
                ( 48.83%)   0.6988* C   2 s( 24.58%)p 3.07( 75.42%)
                                            0.0000 -0.4957  0.7202 -0.2375  0.4233
                ( 51.17%)  -0.7153* H  15 s(100.00%)
                                           -1.0000
    52. (0.02719) BD*( 1) C   3 - C   5  
                ( 49.33%)   0.7024* C   3 s( 26.69%)p 2.75( 73.31%)
                                            0.0000 -0.5167 -0.3398  0.6578  0.4299
                ( 50.67%)  -0.7118* C   5 s( 25.31%)p 2.95( 74.69%)
                                           -0.0001 -0.5031  0.3013 -0.6720 -0.4523
    53. (0.02740) BD*( 1) C   3 - C   7  
                ( 50.73%)   0.7122* C   3 s( 25.46%)p 2.93( 74.54%)
                                            0.0000  0.5046 -0.7928  0.1776 -0.2919
                ( 49.27%)  -0.7019* C   7 s( 25.29%)p 2.95( 74.71%)
                                            0.0000  0.5029  0.7822 -0.2277  0.2888
    54. (0.02134) BD*( 1) C   3 - O   8  
                ( 58.99%)   0.7680* C   3 s( 22.32%)p 3.48( 77.68%)
                                            0.0000  0.4725  0.5051  0.7118 -0.1221
                ( 41.01%)  -0.6404* O   8 s( 16.58%)p 5.03( 83.42%)
                                            0.0000  0.4071 -0.5636 -0.7002  0.1623
    55. (0.02429) BD*( 1) C   3 - H  16  
                ( 49.43%)   0.7031* C   3 s( 25.52%)p 2.92( 74.48%)
                                            0.0000 -0.5052  0.0280  0.1704 -0.8456
                ( 50.57%)  -0.7111* H  16 s(100.00%)
                                           -1.0000
    56. (0.01491) BD*( 1) C   4 - C   5  
                ( 49.54%)   0.7038* C   4 s( 25.31%)p 2.95( 74.69%)
                                           -0.0001 -0.5031 -0.5361 -0.6767  0.0400
                ( 50.46%)  -0.7104* C   5 s( 24.89%)p 3.02( 75.11%)
                                            0.0000 -0.4989  0.5474  0.6679 -0.0728
    57. (0.01197) BD*( 1) C   4 - C   6  
                ( 50.06%)   0.7076* C   4 s( 25.17%)p 2.97( 74.83%)
                                            0.0000  0.5017 -0.7853  0.2328 -0.2782
                ( 49.94%)  -0.7067* C   6 s( 25.32%)p 2.95( 74.68%)
                                            0.0000  0.5032  0.7875 -0.1925  0.2992
    58. (0.01118) BD*( 1) C   4 - H  17  
                ( 48.61%)   0.6972* C   4 s( 24.72%)p 3.05( 75.28%)
                                            0.0000 -0.4972  0.0552  0.2775 -0.8203
                ( 51.39%)  -0.7169* H  17 s(100.00%)
                                           -1.0000
    59. (0.00828) BD*( 1) C   4 - H  18  
                ( 48.50%)   0.6964* C   4 s( 24.80%)p 3.03( 75.20%)
                                            0.0000 -0.4980 -0.3047  0.6410  0.4982
                ( 51.50%)  -0.7177* H  18 s(100.00%)
                                           -1.0000
    60. (0.02255) BD*( 1) C   5 - C   9  
                ( 49.69%)   0.7049* C   5 s( 25.48%)p 2.92( 74.52%)
                                           -0.0001 -0.5048 -0.7781  0.2284 -0.2961
                ( 50.31%)  -0.7093* C   9 s( 25.42%)p 2.93( 74.58%)
                                           -0.0001 -0.5042  0.7886 -0.2809  0.2122
    61. (0.01215) BD*( 1) C   5 - H  19  
                ( 48.79%)   0.6985* C   5 s( 24.32%)p 3.11( 75.68%)
                                            0.0000 -0.4932 -0.0648 -0.2240  0.8381
                ( 51.21%)  -0.7156* H  19 s(100.00%)
                                           -1.0000
    62. (0.00881) BD*( 1) C   6 - H  20  
                ( 48.52%)   0.6966* C   6 s( 24.97%)p 3.01( 75.03%)
                                            0.0000 -0.4997  0.5253  0.6808 -0.1045
                ( 51.48%)  -0.7175* H  20 s(100.00%)
                                           -1.0000
    63. (0.00889) BD*( 1) C   6 - H  21  
                ( 48.62%)   0.6973* C   6 s( 24.32%)p 3.11( 75.68%)
                                            0.0000 -0.4932 -0.0533 -0.1909  0.8470
                ( 51.38%)  -0.7168* H  21 s(100.00%)
                                           -1.0000
    64. (0.00976) BD*( 1) C   7 - H  22  
                ( 48.80%)   0.6986* C   7 s( 24.74%)p 3.04( 75.26%)
                                            0.0000 -0.4974  0.3081 -0.6519 -0.4824
                ( 51.20%)  -0.7155* H  22 s(100.00%)
                                           -1.0000
    65. (0.00918) BD*( 1) C   7 - H  23  
                ( 48.32%)   0.6951* C   7 s( 24.26%)p 3.12( 75.74%)
                                            0.0000 -0.4926 -0.0658 -0.2664  0.8259
                ( 51.68%)  -0.7189* H  23 s(100.00%)
                                           -1.0000
    66. (0.00746) BD*( 1) O   8 - H  24  
                ( 40.57%)   0.6369* O   8 s( 16.76%)p 4.97( 83.24%)
                                            0.0000  0.4094 -0.3858  0.6631  0.4939
                ( 59.43%)  -0.7709* H  24 s(100.00%)
                                            1.0000
    67. (0.01073) BD*( 1) C   9 - C  10  
                ( 51.09%)   0.7148* C   9 s( 25.26%)p 2.96( 74.74%)
                                            0.0000  0.5026  0.0561 -0.0971  0.8572
                ( 48.91%)  -0.6994* C  10 s( 25.88%)p 2.86( 74.12%)
                                            0.0001  0.5087 -0.0950  0.1257 -0.8464
    68. (0.01019) BD*( 1) C   9 - C  11  
                ( 50.65%)   0.7117* C   9 s( 25.15%)p 2.98( 74.85%)
                                            0.0000  0.5015  0.5951  0.5677 -0.2687
                ( 49.35%)  -0.7025* C  11 s( 25.77%)p 2.88( 74.23%)
                                            0.0001  0.5077 -0.6275 -0.5205  0.2785
    69. (0.01094) BD*( 1) C   9 - H  25  
                ( 49.10%)   0.7007* C   9 s( 24.17%)p 3.14( 75.83%)
                                            0.0000 -0.4916 -0.1444  0.7677  0.3847
                ( 50.90%)  -0.7135* H  25 s(100.00%)
                                           -1.0000
    70. (0.00627) BD*( 1) C  10 - H  26  
                ( 48.09%)   0.6935* C  10 s( 24.82%)p 3.03( 75.18%)
                                            0.0000 -0.4982  0.0831 -0.7537 -0.4206
                ( 51.91%)  -0.7205* H  26 s(100.00%)
                                           -1.0000
    71. (0.00620) BD*( 1) C  10 - H  27  
                ( 48.30%)   0.6950* C  10 s( 24.78%)p 3.04( 75.22%)
                                            0.0000 -0.4978  0.6033  0.5543 -0.2845
                ( 51.70%)  -0.7190* H  27 s(100.00%)
                                           -1.0000
    72. (0.00479) BD*( 1) C  10 - H  28  
                ( 48.15%)   0.6939* C  10 s( 24.53%)p 3.08( 75.47%)
                                            0.0000 -0.4953 -0.7875  0.3300 -0.1603
[...]
    6      -1.1938       -1.4691       0.2753        -1.1718      -0.0220
    9      -0.5691       -0.1945      -0.3746        -1.4495       0.8803
   10      27.0789        9.4438      17.6351        16.4963      10.5826
   11       0.2233       -0.3015       0.5249        -1.0332       1.2566
   20      -0.2539       -0.7283       0.4745        -1.1751       0.9212
   21      -0.1513       -0.7372       0.5859        -1.1489       0.9976
   22      19.6023       10.3162       9.2861         5.1939      14.4084
   29      -0.2734       -1.2318       0.9584        -0.8853       0.6119
   39     271.1745       -0.0058     271.1802        -0.0038     271.1782
   43      34.1085       -0.6939      34.8024        -3.3350      37.4435
   44       5.6693      -33.3021      38.9714       -34.2869      39.9562
 Sum      355.4152      -18.9044     374.3196       -22.7994     378.2146

 Contributions to Isotropic shielding for atom    9 (   211.8755 ppm):
                         Standard Origin              Atomic Origin
 NLMO      Total    Paramagnetic  Diamagnetic   Paramagnetic  Diamagnetic
   10       0.0879       -0.3321       0.4199        -1.2087       1.2966
   15      -0.1345       -0.5038       0.3693        -1.0208       0.8863
   16       5.0314       -9.6461      14.6775        -2.6151       7.6465
   23      -0.3914       -6.4859       6.0944        -7.8621       7.4707
   24      -1.9854       -5.2781       3.2927        -9.6487       7.6633
   25       4.8882       -1.2471       6.1353        -5.9235      10.8117
   26       0.8837       -0.2816       1.1652        -0.1457       1.0293
   27       0.6324       -0.5231       1.1555        -0.3792       1.0115
   28       0.5762       -0.2000       0.7761        -0.4618       1.0380
   29       0.9779       -0.3647       1.3426        -0.0606       1.0385
   30       0.7064       -0.6126       1.3190        -0.3271       1.0335
   31       0.6154       -0.3502       0.9657        -0.4136       1.0290
   40     199.9246       -0.0023     199.9269         0.0028     199.9218
 Sum      211.8127      -25.8275     237.6402       -30.0642     241.8769

 Contributions to Isotropic shielding for atom   10 (   224.0502 ppm):
                         Standard Origin              Atomic Origin
 NLMO      Total    Paramagnetic  Diamagnetic   Paramagnetic  Diamagnetic
   23       3.8302       -9.2736      13.1038        -4.1949       8.0251
   24      -0.3634       -0.0196      -0.3438        -1.0583       0.6949
   26       6.7387       -4.8510      11.5897        -4.4151      11.1538
   27       6.8315       -4.9100      11.7414        -4.2314      11.0629
   28       6.0520        3.4542       2.5977        -5.0469      11.0989
   41     200.0736       -0.0022     200.0758         0.0015     200.0721
 Sum      223.1626      -15.6021     238.7646       -18.9451     242.1076

 Contributions to Isotropic shielding for atom   11 (   220.1495 ppm):
                         Standard Origin              Atomic Origin
 NLMO      Total    Paramagnetic  Diamagnetic   Paramagnetic  Diamagnetic
   10       0.1146       -0.2829       0.3976        -1.0278       1.1424
   17      -0.2429       -0.1407      -0.1022        -1.1780       0.9350
   23      -0.4872        0.0060      -0.4932        -1.1764       0.6892
   24       4.3651      -11.0152      15.3803        -3.4573       7.8224
   25       0.2613        0.1755       0.0858        -0.7892       1.0505
   29       5.9877       -5.0717      11.0594        -5.3971      11.3849
   30       5.4329       -4.1653       9.5983        -5.6775      11.1104
   31       4.6746        2.5578       2.1168        -6.3026      10.9772
   42     200.0752       -0.0038     200.0790         0.0022     200.0730
 Sum      220.1812      -17.9404     238.1217       -25.0038     245.1850

 Contributions to Isotropic shielding for atom   12 (    32.7014 ppm):
                         Standard Origin              Atomic Origin
 NLMO      Total    Paramagnetic  Diamagnetic   Paramagnetic  Diamagnetic
    1       1.3321        0.3173       1.0148         0.2995       1.0326
    2      26.3527        0.1184      26.2343         0.4124      25.9403
    3       1.9332        2.4077      -0.4745         0.0900       1.8432
    4       2.1078        0.5237       1.5841         0.2533       1.8545
 Sum       31.7257        3.3670      28.3587         1.0551      30.6706

 Contributions to Isotropic shielding for atom   13 (    32.6368 ppm):
                         Standard Origin              Atomic Origin
 NLMO      Total    Paramagnetic  Diamagnetic   Paramagnetic  Diamagnetic
    1       1.2416        0.5691       0.6725         0.2059       1.0357
    2       1.9482        2.3456      -0.3974         0.1108       1.8375
    3      26.3305        0.0789      26.2516         0.4316      25.8989
    4       2.0910        0.7321       1.3589         0.2379       1.8531
 Sum       31.6114        3.7258      27.8856         0.9863      30.6252

 Contributions to Isotropic shielding for atom   14 (    32.7103 ppm):
                         Standard Origin              Atomic Origin
 NLMO      Total    Paramagnetic  Diamagnetic   Paramagnetic  Diamagnetic
    1       1.6191       -1.2827       2.9018         0.7226       0.8965
    2       1.9987        0.8488       1.1499         0.1604       1.8383
    3       1.9765        1.1335       0.8430         0.1348       1.8417
    4      26.2961        0.3818      25.9143         0.3572      25.9389
 Sum       31.8904        1.0813      30.8091         1.3749      30.5155

 Contributions to Isotropic shielding for atom   15 (    32.4210 ppm):
                         Standard Origin              Atomic Origin
 NLMO      Total    Paramagnetic  Diamagnetic   Paramagnetic  Diamagnetic
    1       0.7907        2.2387      -1.4480        -0.2204       1.0111
    5       1.1738        1.3901      -0.2163         0.1875       0.9863
    6       1.2878        1.0771       0.2106         0.3374       0.9503
    7      26.5320       -0.2871      26.8192         0.5113      26.0208
   19       0.1497        0.0228       0.1268        -0.8855       1.0352
   21       0.1312        0.1893      -0.0581        -0.9110       1.0422
 Sum       30.0652        4.6310      25.4343        -0.9808      31.0460

 Contributions to Isotropic shielding for atom   16 (    32.1975 ppm):
                         Standard Origin              Atomic Origin
 NLMO      Total    Paramagnetic  Diamagnetic   Paramagnetic  Diamagnetic
    8       1.0628       -0.1874       1.2503        -0.0201       1.0830
   10       0.7270        0.7269       0.0001        -0.8181       1.5451
   11      26.7041        0.4116      26.2925         0.6655      26.0386
   22       0.2978       -0.8432       1.1409        -0.6701       0.9679
   26      -0.2858       -1.3047       1.0190        -1.0318       0.7460
 Sum       28.5060       -1.1968      29.7028        -1.8746      30.3805

 Contributions to Isotropic shielding for atom   17 (    32.6881 ppm):
                         Standard Origin              Atomic Origin
 NLMO      Total    Paramagnetic  Diamagnetic   Paramagnetic  Diamagnetic
   12       1.4087       -0.1152       1.5239         0.5162       0.8925
   13       1.0368        0.8355       0.2014         0.0925       0.9443
   14      26.4547        0.1820      26.2727         0.4035      26.0512
   15       1.9862        1.4428       0.5434         0.2225       1.7637
   23      -0.0033       -0.5486       0.5453        -1.0088       1.0054
   27      -0.3894       -1.2320       0.8427        -0.8095       0.4201
 Sum       30.4938        0.5644      29.9293        -0.5835      31.0773

 Contributions to Isotropic shielding for atom   18 (    32.5107 ppm):
                         Standard Origin              Atomic Origin
 NLMO      Total    Paramagnetic  Diamagnetic   Paramagnetic  Diamagnetic
   12       1.3533        0.4985       0.8549         0.3952       0.9581
   13       0.9932        1.4749      -0.4817        -0.0389       1.0320
   14       2.0968        1.2498       0.8470         0.3353       1.7615
   15      26.4124        0.0375      26.3749         0.4655      25.9469
   19       0.2045       -0.4027       0.6072        -0.8094       1.0139
   25      -0.1745       -1.0222       0.8477        -0.8892       0.7147
 Sum       30.8857        1.8358      29.0499        -0.5415      31.4271

 Contributions to Isotropic shielding for atom   19 (    32.3756 ppm):
                         Standard Origin              Atomic Origin
 NLMO      Total    Paramagnetic  Diamagnetic   Paramagnetic  Diamagnetic
    8       1.2533        0.7284       0.5249         0.3237       0.9296
   10       0.1421       -0.4201       0.5622        -1.3540       1.4961
   12       1.1549        0.9213       0.2336         0.1896       0.9652
   16       1.0796        1.3067      -0.2271        -0.0577       1.1373
   17      26.3597        0.0516      26.3081         0.4465      25.9133
   24      -0.0431       -0.6246       0.5815        -1.0503       1.0072
   30      -0.1553       -1.5589       1.4036        -1.0421       0.8868
 Sum       29.7912        0.4043      29.3869        -2.5443      32.3355

 Contributions to Isotropic shielding for atom   20 (    32.5041 ppm):
                         Standard Origin              Atomic Origin
 NLMO      Total    Paramagnetic  Diamagnetic   Paramagnetic  Diamagnetic
    1      -0.0971        0.0029      -0.1001        -1.0640       0.9668
    3      -0.0997       -1.0251       0.9254        -0.9941       0.8944
    5       1.0300        1.2649      -0.2349         0.1299       0.9001
   13       1.2242        0.6685       0.5558         0.2152       1.0091
   18      26.4631       -0.0007      26.4638         0.4992      25.9638
   19       2.0235        1.8389       0.1846         0.2842       1.7393
 Sum       30.5440        2.7494      27.7946        -0.9296      31.4736

 Contributions to Isotropic shielding for atom   21 (    32.4590 ppm):
                         Standard Origin              Atomic Origin
 NLMO      Total    Paramagnetic  Diamagnetic   Paramagnetic  Diamagnetic
    5       1.2221        0.6666       0.5555         0.2521       0.9701
   13       1.3812        0.0403       1.3408         0.4066       0.9746
   18       1.9180        2.0503      -0.1323         0.1421       1.7759
   19      26.4732        0.1258      26.3474         0.4383      26.0349
 Sum       30.9945        2.8830      28.1114         1.2390      29.7554

 Contributions to Isotropic shielding for atom   22 (    32.8381 ppm):
                         Standard Origin              Atomic Origin
 NLMO      Total    Paramagnetic  Diamagnetic   Paramagnetic  Diamagnetic
    1      -0.0469       -0.2629       0.2161        -1.0105       0.9636
    2      -0.1042       -1.1205       1.0163        -0.9964       0.8922
    6       0.9940        1.2865      -0.2926         0.0707       0.9232
    9       1.3344        0.4308       0.9037         0.4228       0.9116
   10      -0.1994        0.3835      -0.5829        -1.3325       1.1331
   20      26.5641        0.0619      26.5022         0.4633      26.1008
   21       2.0133        1.6252       0.3882         0.1818       1.8316
 Sum       30.5553        2.4043      28.1510        -2.2008      32.7561

 Contributions to Isotropic shielding for atom   23 (    32.2218 ppm):
                         Standard Origin              Atomic Origin
 NLMO      Total    Paramagnetic  Diamagnetic   Paramagnetic  Diamagnetic
    6       1.0585        0.8467       0.2118         0.0656       0.9928
    9       1.4006        0.0596       1.3409         0.4906       0.9100
   10      -0.0990        0.0370      -0.1360        -1.4453       1.3462
   20       1.9151        1.6856       0.2296         0.0861       1.8291
   21      26.2968        0.1374      26.1594         0.4427      25.8541
 Sum       30.5719        2.7662      27.8057        -0.3602      30.9322

 Contributions to Isotropic shielding for atom   24 (    35.1202 ppm):
                         Standard Origin              Atomic Origin
 NLMO      Total    Paramagnetic  Diamagnetic   Paramagnetic  Diamagnetic
    9      -0.1832        0.3736      -0.5568        -1.2351       1.0519
   10       1.4649        2.1417      -0.6768         0.7601       0.7047
   11       0.1692        0.1962      -0.0270        -0.8494       1.0186
   20      -0.0555       -0.5938       0.5383        -1.0082       0.9527
   22      23.0872       -0.4875      23.5747        -0.1101      23.1973
   43       4.1490        0.9569       3.1921         2.2145       1.9344
   44       5.5768        2.4327       3.1441         2.4172       3.1596
 Sum       34.2083        5.0198      29.1886         2.1890      32.0193

 Contributions to Isotropic shielding for atom   25 (    32.4903 ppm):
                         Standard Origin              Atomic Origin
 NLMO      Total    Paramagnetic  Diamagnetic   Paramagnetic  Diamagnetic
   12      -0.1490        0.2673      -0.4162        -1.2464       1.0975
   15      -0.1264       -0.5687       0.4423        -1.0168       0.8904
   16       1.6446        0.1423       1.5023         0.6161       1.0286
   23       0.9789        1.5590      -0.5801        -0.0460       1.0249
   24       0.8527        2.0779      -1.2251        -0.2253       1.0781
   25      26.5851       -0.1549      26.7400         0.4590      26.1261
   31       0.1908       -0.6743       0.8652        -0.8389       1.0297
 Sum       29.9769        2.6485      27.3283        -2.2985      32.2753

 Contributions to Isotropic shielding for atom   26 (    32.5675 ppm):
                         Standard Origin              Atomic Origin
 NLMO      Total    Paramagnetic  Diamagnetic   Paramagnetic  Diamagnetic
    8      -0.1163       -0.0130      -0.1033        -1.1052       0.9890
   10       0.0245       -0.1068       0.1312        -1.1682       1.1927
   23       1.4795       -0.5483       2.0278         0.5380       0.9415
   24      -0.1125        0.0645      -0.1770        -1.0006       0.8881
   26      26.2741        0.2736      26.0005         0.3834      25.8907
   27       2.1194        0.3641       1.7553         0.3070       1.8124
   28       1.9841        1.9707       0.0134         0.1333       1.8508
 Sum       31.6527        2.0047      29.6480        -1.9123      33.5651

 Contributions to Isotropic shielding for atom   27 (    32.6319 ppm):
                         Standard Origin              Atomic Origin
 NLMO      Total    Paramagnetic  Diamagnetic   Paramagnetic  Diamagnetic
   12      -0.0563       -0.0008      -0.0554        -1.0078       0.9515
   23       1.4759       -0.6360       2.1119         0.4621       1.0138
   26       2.1149        0.3556       1.7593         0.2822       1.8327
   27      26.3889        0.2819      26.1071         0.3706      26.0184
   28       1.9659        1.9082       0.0577         0.1070       1.8589
 Sum       31.8894        1.9088      29.9806         0.2141      31.6752

 Contributions to Isotropic shielding for atom   28 (    32.4909 ppm):
                         Standard Origin              Atomic Origin
 NLMO      Total    Paramagnetic  Diamagnetic   Paramagnetic  Diamagnetic
   23       1.1569        0.9263       0.2306         0.1186       1.0382
   24      -0.1239        0.5184      -0.6423        -1.0896       0.9656
   26       2.0120        1.5751       0.4369         0.1465       1.8655
   27       2.0323        1.5431       0.4893         0.1768       1.8555
   28      26.3068       -0.0326      26.3394         0.3965      25.9103
 Sum       31.3841        4.5303      26.8538        -0.2511      31.6352

 Contributions to Isotropic shielding for atom   29 (    31.9014 ppm):
                         Standard Origin              Atomic Origin
 NLMO      Total    Paramagnetic  Diamagnetic   Paramagnetic  Diamagnetic
    8      -0.0844        0.1197      -0.2041        -1.0055       0.9210
   23      -0.1573        0.2394      -0.3967        -1.0948       0.9375
   24       1.5340       -0.9732       2.5072         0.6456       0.8884
   29      26.0188        0.3093      25.7095         0.4321      25.5867
   30       1.9932        0.7376       1.2556         0.1778       1.8153
   31       1.8645        2.0228      -0.1583         0.0098       1.8547
   43      -0.6514       -0.0525      -0.5988         0.5446      -1.1959
 Sum       30.5174        2.4030      28.1144        -0.2904      30.8078

 Contributions to Isotropic shielding for atom   30 (    32.3379 ppm):
                         Standard Origin              Atomic Origin
 NLMO      Total    Paramagnetic  Diamagnetic   Paramagnetic  Diamagnetic
   10       0.1100       -0.2558       0.3658        -0.8911       1.0012
   16      -0.0667        0.0929      -0.1596        -1.0501       0.9834
   24       1.5549       -0.7302       2.2851         0.5806       0.9743
   29       2.0610        0.7197       1.3413         0.1987       1.8624
   30      26.3603        0.2763      26.0840         0.4248      25.9355
   31       1.8829        2.2174      -0.3346         0.0609       1.8219
 Sum       31.9025        2.3204      29.5821        -0.6762      32.5787

 Contributions to Isotropic shielding for atom   31 (    32.4275 ppm):
                         Standard Origin              Atomic Origin
 NLMO      Total    Paramagnetic  Diamagnetic   Paramagnetic  Diamagnetic
   23      -0.1433        0.6797      -0.8230        -1.0488       0.9055
   24       1.2151        0.4284       0.7867         0.2087       1.0064
   29       1.9737        1.7062       0.2675         0.0764       1.8974
   30       1.9277        1.8924       0.0353         0.0723       1.8554
   31      26.5280        0.0103      26.5177         0.4519      26.0761
 Sum       31.5013        4.7170      26.7843        -0.2395      31.7408
 
 1\1\GINC-COMPUTE-10-4\SP\RHF\STO-3G\C10H20O1\YTSAI.IQUIR\03-Aug-2021\0
 \\# rhf/STO-3G nmr pop=nbo\\comment\\0,1\C,0,0.092100191,0.918261986,-
 2.880527498\C,0,-1.041774952,0.166844433,-2.178391524\C,0,0.313389554,
 -0.963590939,-0.318494577\C,0,-0.860148331,1.233551351,0.132664204\C,0
 ,-0.398853957,-0.103927641,0.748825657\C,0,-1.723732991,1.029705094,-1
 .111317992\C,0,-0.556413215,-1.15074147,-1.567583109\O,0,0.604242072,-
 2.255085461,0.206529276\C,0,0.41584897,0.155042011,2.054281883\C,0,1.8
 26275098,0.700295301,1.813915158\C,0,0.49087085,-1.077172155,2.9625806
 99\H,0,0.530015302,0.299947306,-3.671464893\H,0,-0.285455134,1.8344357
 61,-3.347077027\H,0,0.895931367,1.199859735,-2.194288802\H,0,-1.788784
 326,-0.071873791,-2.946681518\H,0,1.264719223,-0.502544261,-0.60389963
 5\H,0,0.003156571,1.856327886,-0.125229324\H,0,-1.441576783,1.79862357
 6,0.871529813\H,0,-1.306227057,-0.645483333,1.055092132\H,0,-1.9983809
 59,2.004749379,-1.531052855\H,0,-2.6623649,0.545845996,-0.811366412\H,
 0,-0.008260337,-1.738684315,-2.314931907\H,0,-1.427250795,-1.766537604
 ,-1.303120206\H,0,1.078845305,-2.752704882,-0.480958174\H,0,-0.1307562
 48,0.916937339,2.62738663\H,0,2.468593074,-0.038429563,1.324164812\H,0
 ,1.8108221,1.603990749,1.198449854\H,0,2.299700233,0.963711087,2.76643
 4952\H,0,1.16246618,-1.843888398,2.566796319\H,0,-0.498942903,-1.52198
 481,3.106955982\H,0,0.871946799,-0.795480365,3.95077808\\Version=EM64L
 -G09RevC.01\State=1-A\HF=-459.6190788\RMSD=6.161e-09\Dipole=0.0665013,
 0.1941199,-0.5020739\Quadrupole=0.7392959,-0.6426015,-0.0966944,-0.883
 4329,-0.8974598,2.5017403\PG=C01 [X(C10H20O1)]\\@


 WHAT, THEN, IS TIME?  IF NO ONE ASKS ME, I KNOW WHAT IT IS.
 IF I WISH TO EXPLAIN WHAT IT IS TO HIM WHO ASKS ME, I DO NOT KNOW.
                                   -- ST. AUGUSTINE (FIFTH CENTURY)
 Job cpu time:  0 days  0 hours  0 minutes 29.1 seconds.
 File lengths (MBytes):  RWF=      5 Int=      0 D2E=      0 Chk=      1 Scr=      1
 Normal termination of Gaussian 09 at Tue Aug  3 16:36:54 2021.
