 Entering Gaussian System, Link 0=g09
 Input=/home/ytsai.iquir/menthol/03_menthol_M0097_MMFF_NMR_rhf_STO-3G_nbo.gjc
 Output=/home/ytsai.iquir/menthol/03_menthol_M0097_MMFF_NMR_rhf_STO-3G_nbo.log
 Initial command:
 /share/apps/Gaussian09/EM64T.SSE4.2-enabled/g09/l1.exe /tmp/Gau-31087.inp -scrdir=/tmp/
 Entering Link 1 = /share/apps/Gaussian09/EM64T.SSE4.2-enabled/g09/l1.exe PID=     31088.
  
 Copyright (c) 1988,1990,1992,1993,1995,1998,2003,2009,2011,
            Gaussian, Inc.  All Rights Reserved.
  
 This is part of the Gaussian(R) 09 program.  It is based on
 the Gaussian(R) 03 system (copyright 2003, Gaussian, Inc.),
 the Gaussian(R) 98 system (copyright 1998, Gaussian, Inc.),
 the Gaussian(R) 94 system (copyright 1995, Gaussian, Inc.),
 the Gaussian 92(TM) system (copyright 1992, Gaussian, Inc.),
 the Gaussian 90(TM) system (copyright 1990, Gaussian, Inc.),
 the Gaussian 88(TM) system (copyright 1988, Gaussian, Inc.),
 the Gaussian 86(TM) system (copyright 1986, Carnegie Mellon
 University), and the Gaussian 82(TM) system (copyright 1983,
 Carnegie Mellon University). Gaussian is a federally registered
 trademark of Gaussian, Inc.
  
 This software contains proprietary and confidential information,
 including trade secrets, belonging to Gaussian, Inc.
  
 This software is provided under written license and may be
 used, copied, transmitted, or stored only in accord with that
 written license.
  
 The following legend is applicable only to US Government
 contracts under FAR:
  
                    RESTRICTED RIGHTS LEGEND
  
 Use, reproduction and disclosure by the US Government is
 subject to restrictions as set forth in subparagraphs (a)
 and (c) of the Commercial Computer Software - Restricted
 Rights clause in FAR 52.227-19.
  
 Gaussian, Inc.
 340 Quinnipiac St., Bldg. 40, Wallingford CT 06492
  
  
 ---------------------------------------------------------------
 Warning -- This program may not be used in any manner that
 competes with the business of Gaussian, Inc. or will provide
 assistance to any competitor of Gaussian, Inc.  The licensee
 of this program is prohibited from giving any competitor of
 Gaussian, Inc. access to this program.  By using this program,
 the user acknowledges that Gaussian, Inc. is engaged in the
 business of creating and licensing software in the field of
 computational chemistry and represents and warrants to the
 licensee that it is not a competitor of Gaussian, Inc. and that
 it will not use this program in any manner prohibited above.
 ---------------------------------------------------------------
  

 Cite this work as:
 Gaussian 09, Revision C.01,
 M. J. Frisch, G. W. Trucks, H. B. Schlegel, G. E. Scuseria, 
 M. A. Robb, J. R. Cheeseman, G. Scalmani, V. Barone, B. Mennucci, 
 G. A. Petersson, H. Nakatsuji, M. Caricato, X. Li, H. P. Hratchian, 
 A. F. Izmaylov, J. Bloino, G. Zheng, J. L. Sonnenberg, M. Hada, 
 M. Ehara, K. Toyota, R. Fukuda, J. Hasegawa, M. Ishida, T. Nakajima, 
 Y. Honda, O. Kitao, H. Nakai, T. Vreven, J. A. Montgomery, Jr., 
 J. E. Peralta, F. Ogliaro, M. Bearpark, J. J. Heyd, E. Brothers, 
 K. N. Kudin, V. N. Staroverov, T. Keith, R. Kobayashi, J. Normand, 
 K. Raghavachari, A. Rendell, J. C. Burant, S. S. Iyengar, J. Tomasi, 
 M. Cossi, N. Rega, J. M. Millam, M. Klene, J. E. Knox, J. B. Cross, 
 V. Bakken, C. Adamo, J. Jaramillo, R. Gomperts, R. E. Stratmann, 
 O. Yazyev, A. J. Austin, R. Cammi, C. Pomelli, J. W. Ochterski, 
 R. L. Martin, K. Morokuma, V. G. Zakrzewski, G. A. Voth, 
 P. Salvador, J. J. Dannenberg, S. Dapprich, A. D. Daniels, 
 O. Farkas, J. B. Foresman, J. V. Ortiz, J. Cioslowski, 
 and D. J. Fox, Gaussian, Inc., Wallingford CT, 2010.
 
 ******************************************
 Gaussian 09:  EM64L-G09RevC.01 23-Sep-2011
                 3-Aug-2021 
 ******************************************
 %nprocshared=4
 Will use up to    4 processors via shared memory.
 ------------------------
 # rhf/STO-3G nmr pop=nbo
 ------------------------
 1/38=1/1;
 2/12=2,17=6,18=5,40=1/2;
 3/6=3,11=1,16=1,25=1,30=1,116=1/1,2,8,3;
 4//1;
 5/5=2,38=5/2;
 8/6=1,10=90,11=11/1;
 10/13=100,45=16/2;
 6/7=2,8=2,9=2,10=2,28=1,64=1/1,7;
 99/9=1/99;
 -------
 comment
 -------
 Charge =  0 Multiplicity = 1
 Symbolic Z-Matrix:
 6                     0.26532   0.34632  -3.22234 
 6                    -0.78983   0.31179  -2.11556 
 6                    -0.06036  -1.10866  -0.1269 
 6                    -1.18781   1.16455   0.2392 
 6                    -0.64336  -0.11898   0.90991 
 6                    -0.54089   1.44862  -1.11272 
 6                    -0.84514  -1.06588  -1.43917 
 8                    -0.1325   -2.43411   0.39547 
 6                     0.31248   0.21038   2.0999 
 6                     1.57168   0.98607   1.70174 
 6                     0.71217  -1.03363   2.89924 
 1                     1.26594   0.14446  -2.82527 
 1                     0.04825  -0.40446  -3.98953 
 1                     0.28387   1.32644  -3.71061 
 1                    -1.76404   0.48086  -2.59354 
 1                     0.99374  -0.89286  -0.32827 
 1                    -1.079     2.03368   0.89788 
 1                    -2.26849   1.04451   0.08331 
 1                    -1.51231  -0.60913   1.37538 
 1                     0.53524   1.60737  -0.97524 
 1                    -0.9385    2.38525  -1.5221 
 1                    -0.50017  -1.85566  -2.11829 
 1                    -1.89292  -1.32015  -1.2257 
 1                     0.26619  -3.03068  -0.26077 
 1                    -0.25183   0.85262   2.7907 
 1                     2.20278   0.41765   1.01252 
 1                     1.3227    1.94197   1.23265 
 1                     2.1757    1.21362   2.58742 
 1                     1.39945  -1.67449   2.33818 
 1                    -0.16812  -1.62273   3.17611 
 1                     1.21972  -0.74475   3.8264 
 
                          Input orientation:                          
 ---------------------------------------------------------------------
 Center     Atomic      Atomic             Coordinates (Angstroms)
 Number     Number       Type             X           Y           Z
 ---------------------------------------------------------------------
      1          6           0        0.265322    0.346321   -3.222337
      2          6           0       -0.789828    0.311786   -2.115560
      3          6           0       -0.060364   -1.108656   -0.126897
      4          6           0       -1.187805    1.164553    0.239203
      5          6           0       -0.643363   -0.118983    0.909909
      6          6           0       -0.540886    1.448622   -1.112720
      7          6           0       -0.845141   -1.065883   -1.439171
      8          8           0       -0.132497   -2.434105    0.395467
      9          6           0        0.312479    0.210378    2.099898
     10          6           0        1.571685    0.986070    1.701741
     11          6           0        0.712171   -1.033627    2.899239
     12          1           0        1.265939    0.144464   -2.825272
     13          1           0        0.048249   -0.404456   -3.989530
     14          1           0        0.283875    1.326444   -3.710606
     15          1           0       -1.764040    0.480861   -2.593535
     16          1           0        0.993742   -0.892864   -0.328274
     17          1           0       -1.079001    2.033679    0.897882
     18          1           0       -2.268492    1.044505    0.083307
     19          1           0       -1.512306   -0.609127    1.375384
     20          1           0        0.535243    1.607373   -0.975242
     21          1           0       -0.938499    2.385246   -1.522098
     22          1           0       -0.500165   -1.855655   -2.118286
     23          1           0       -1.892923   -1.320150   -1.225697
     24          1           0        0.266194   -3.030680   -0.260774
     25          1           0       -0.251829    0.852616    2.790702
     26          1           0        2.202779    0.417655    1.012520
     27          1           0        1.322704    1.941973    1.232645
     28          1           0        2.175700    1.213615    2.587417
     29          1           0        1.399454   -1.674489    2.338182
     30          1           0       -0.168115   -1.622734    3.176105
     31          1           0        1.219720   -0.744754    3.826395
 ---------------------------------------------------------------------
                    Distance matrix (angstroms):
                    1          2          3          4          5
     1  C    0.000000
     2  C    1.529540   0.000000
     3  C    3.435809   2.550403   0.000000
     4  C    3.842310   2.535844   2.563715   0.000000
     5  C    4.256486   3.059489   1.547355   1.547168   0.000000
     6  C    2.513071   1.536248   2.782521   1.525417   2.561038
     7  C    2.531231   1.535751   1.529630   2.812330   2.540770
     8  O    4.580124   3.778525   1.426493   3.753456   2.425990
     9  C    5.324180   4.358377   2.614857   2.573615   1.561470
    10  C    5.134434   4.539074   3.224186   3.128204   2.598957
    11  C    6.291075   5.405029   3.124089   3.939250   2.575166
    12  H    1.095282   2.181254   3.257394   4.056162   4.203144
    13  H    1.095158   2.174199   3.927802   4.676730   4.956241
    14  H    1.095167   2.174061   4.346399   4.218180   4.929319
    15  H    2.128803   1.098242   3.393138   2.970503   3.726909
    16  H    3.231374   2.797623   1.094650   3.051908   2.193651
    17  H    4.650869   3.482724   3.458621   1.095936   2.196332
    18  H    4.223146   2.749243   3.091298   1.098453   2.162873
    19  H    5.021143   3.681948   2.148142   2.131232   1.100895
    20  H    2.590858   2.175933   2.907103   2.154033   2.814819
    21  H    2.914998   2.161837   3.863297   2.157412   3.503274
    22  H    2.579457   2.186713   2.171880   3.892590   3.493780
    23  H    3.379603   2.161454   2.147176   2.969322   2.750458
    24  H    4.491658   3.965790   1.954160   4.468118   3.267381
    25  H    6.056436   4.965214   3.520743   2.735600   2.152832
    26  H    4.657557   4.330333   2.957990   3.556956   2.898108
    27  H    4.848817   4.281446   3.614909   2.809620   2.866551
    28  H    6.176972   5.632552   4.214312   4.102400   3.540758
    29  H    6.024060   5.345471   2.920248   4.377189   2.938140
    30  H    6.708585   5.668387   3.344504   4.175420   2.760937
    31  H    7.196246   6.360927   4.171278   4.723302   3.516897
                    6          7          8          9         10
     6  C    0.000000
     7  C    2.553797   0.000000
     8  O    4.185329   2.397037   0.000000
     9  C    3.547168   3.936234   3.177480   0.000000
    10  C    3.549380   4.462834   4.038339   1.531609   0.000000
    11  C    4.881344   4.609561   2.990598   1.531746   2.500387
    12  H    2.810388   2.800513   4.356351   5.017044   4.614719
    13  H    3.472321   2.782079   4.835322   6.126090   6.053510
    14  H    2.728400   3.486735   5.583451   5.916788   5.573850
    15  H    2.150694   2.137604   4.482532   5.139398   5.461840
    16  H    2.907403   2.155346   2.041480   2.752686   2.825840
    17  H    2.162031   3.888931   4.594495   2.589496   2.961387
    18  H    2.139723   2.966076   4.093977   3.379915   4.167698
    19  H    3.371743   2.928388   2.488907   2.127522   3.487429
    20  H    1.096428   3.044172   4.319521   3.384923   2.937085
    21  H    1.096791   3.453388   5.249080   4.406116   4.318780
    22  H    3.454138   1.097245   2.605520   4.766756   5.192357
    23  H    3.083321   1.099122   2.639729   4.273863   5.088423
    24  H    4.630480   2.546392   0.972372   4.009909   4.657258
    25  H    3.959228   4.682358   4.068652   1.099147   2.128109
    26  H    3.620391   4.183477   3.737218   2.190568   1.093802
    27  H    3.035968   4.570049   4.687060   2.184286   1.093523
    28  H    4.596311   5.525848   4.841310   2.171578   1.095916
    29  H    5.042565   4.435876   2.588056   2.188838   2.741038
    30  H    5.288309   4.697789   2.896816   2.179333   3.465041
    31  H    5.683792   5.665065   4.056313   2.171671   2.762930
                   11         12         13         14         15
    11  C    0.000000
    12  H    5.870654   0.000000
    13  H    6.949229   1.771886   0.000000
    14  H    7.031601   1.773512   1.768992   0.000000
    15  H    6.212557   3.057392   2.452953   2.481292   0.000000
    16  H    3.242828   2.717561   3.812780   4.107238   3.824120
    17  H    4.077020   4.788502   5.576915   4.857547   3.882076
    18  H    4.597005   4.664988   4.904567   4.581249   2.781663
    19  H    2.729585   5.092353   5.591022   5.730619   4.123562
    20  H    4.692311   2.469136   3.656576   2.761217   3.028961
    21  H    5.827660   3.402781   3.852834   2.721180   2.335846
    22  H    5.226953   2.760331   2.430698   3.643619   2.698621
    23  H    4.887096   3.831728   3.499345   4.232927   2.265222
    24  H    3.764678   4.202104   4.565980   5.557534   4.679161
    25  H    2.121081   5.860398   6.902306   6.540527   5.604908
    26  H    2.808529   3.959917   5.508027   5.178417   5.361276
    27  H    3.464747   4.438575   5.865243   5.088592   5.128596
    28  H    2.699860   5.591775   7.099326   6.576992   6.549866
    29  H    1.094462   5.476100   6.593836   6.843825   6.243001
    30  H    1.094809   6.418413   7.271681   7.505247   6.345143
    31  H    1.095752   6.711000   7.910552   7.872233   7.184739
                   16         17         18         19         20
    16  H    0.000000
    17  H    3.790036   0.000000
    18  H    3.816408   1.748395   0.000000
    19  H    3.043556   2.720328   2.230646   0.000000
    20  H    2.622970   2.509205   3.049307   3.825019   0.000000
    21  H    3.988079   2.449417   2.478668   4.206059   1.753868
    22  H    2.522472   4.955728   4.047829   3.844996   3.790934
    23  H    3.052995   4.052187   2.728761   2.723242   3.811706
    24  H    2.259235   5.366541   4.811462   3.421111   4.700467
    25  H    3.784991   2.379473   3.381382   2.393454   3.920647
    26  H    2.230909   3.659885   4.609625   3.871409   2.854348
    27  H    3.252842   2.426657   3.875967   3.816512   2.367872
    28  H    3.786229   3.757674   5.103921   4.288683   3.941914
    29  H    2.808118   4.686972   5.092270   3.246586   4.743022
    30  H    3.763415   4.403336   4.592510   2.465126   5.306787
    31  H    4.163446   4.645428   5.420312   3.672849   5.390429
                   21         22         23         24         25
    21  H    0.000000
    22  H    4.304977   0.000000
    23  H    3.837804   1.738751   0.000000
    24  H    5.689858   2.327733   2.918695   0.000000
    25  H    4.628252   5.612002   4.852377   4.965868   0.000000
    26  H    4.490359   4.719723   4.980397   4.154834   3.062062
    27  H    3.591398   5.382710   5.198572   5.298471   2.468480
    28  H    5.287633   6.222886   6.124826   5.456414   2.462629
    29  H    6.070357   4.847832   4.864827   3.142946   3.052501
    30  H    6.223384   5.309904   4.737340   3.739395   2.506571
    31  H    6.562103   6.287395   5.961818   4.779082   2.406181
                   26         27         28         29         30
    26  H    0.000000
    27  H    1.773847   0.000000
    28  H    1.764820   1.758838   0.000000
    29  H    2.603800   3.782446   3.000970   0.000000
    30  H    3.803344   4.325126   3.726245   1.778220   0.000000
    31  H    3.199296   3.735859   2.506826   1.763942   1.766299
                   31
    31  H    0.000000
 Stoichiometry    C10H20O
 Framework group  C1[X(C10H20O)]
 Deg. of freedom    87
 Full point group                 C1      NOp   1
 Largest Abelian subgroup         C1      NOp   1
 Largest concise Abelian subgroup C1      NOp   1
                         Standard orientation:                         
 ---------------------------------------------------------------------
 Center     Atomic      Atomic             Coordinates (Angstroms)
 Number     Number       Type             X           Y           Z
 ---------------------------------------------------------------------
      1          6           0       -3.119917   -0.105955    1.060599
      2          6           0       -2.282404   -0.104869   -0.219269
      3          6           0       -0.001011    0.984228    0.117885
      4          6           0       -0.220111   -1.196560   -1.212076
      5          6           0        0.729437   -0.063574   -0.755537
      6          6           0       -1.420253   -1.374555   -0.287482
      7          6           0       -1.447628    1.178563   -0.339611
      8          8           0        0.674068    2.236547    0.013751
      9          6           0        2.043612   -0.627118   -0.128202
     10          6           0        1.830355   -1.466725    1.134892
     11          6           0        3.079423    0.465128    0.155243
     12          1           0       -2.485570   -0.052166    1.951864
     13          1           0       -3.802212    0.750493    1.079068
     14          1           0       -3.725249   -1.016155    1.127689
     15          1           0       -2.984286   -0.118945   -1.063840
     16          1           0        0.008981    0.693483    1.173170
     17          1           0        0.316680   -2.146137   -1.318065
     18          1           0       -0.594176   -0.954118   -2.216016
     19          1           0        1.054188    0.447906   -1.674719
     20          1           0       -1.070438   -1.652530    0.713773
     21          1           0       -2.036015   -2.211078   -0.639645
     22          1           0       -1.914296    2.008253    0.206083
     23          1           0       -1.439108    1.505218   -1.389037
     24          1           0        0.214129    2.867401    0.593396
     25          1           0        2.493559   -1.291241   -0.879609
     26          1           0        1.386376   -0.882190    1.945820
     27          1           0        1.187364   -2.329402    0.939586
     28          1           0        2.787030   -1.858368    1.498790
     29          1           0        2.781820    1.100099    0.995535
     30          1           0        3.233699    1.098524   -0.724310
     31          1           0        4.045964    0.017191    0.411805
 ---------------------------------------------------------------------
 Rotational constants (GHZ):      1.6117077      0.7848884      0.6468135
 Standard basis: STO-3G (5D, 7F)
 There are    75 symmetry adapted basis functions of A   symmetry.
 Integral buffers will be    131072 words long.
 Raffenetti 1 integral format.
 Two-electron integral symmetry is turned on.
    75 basis functions,   225 primitive gaussians,    75 cartesian basis functions
    44 alpha electrons       44 beta electrons
       nuclear repulsion energy       698.2065277926 Hartrees.
 NAtoms=   31 NActive=   31 NUniq=   31 SFac= 1.00D+00 NAtFMM=   60 NAOKFM=F Big=F
 One-electron integrals computed using PRISM.
 NBasis=    75 RedAO= T  NBF=    75
 NBsUse=    75 1.00D-06 NBFU=    75
 Harris functional with IExCor=  205 diagonalized for initial guess.
 ExpMin= 1.69D-01 ExpMax= 1.31D+02 ExpMxC= 1.31D+02 IAcc=1 IRadAn=         1 AccDes= 0.00D+00
 HarFok:  IExCor=  205 AccDes= 0.00D+00 IRadAn=         1 IDoV= 1
 ScaDFX=  1.000000  1.000000  1.000000  1.000000
 FoFCou: FMM=F IPFlag=           0 FMFlag=      100000 FMFlg1=           0
         NFxFlg=           0 DoJE=T BraDBF=F KetDBF=T FulRan=T
         Omega=  0.000000  0.000000  1.000000  0.000000  0.000000 ICntrl=     500 IOpCl=  0
         NMat0=    1 NMatS0=    1 NMatT0=    0 NMatD0=    1 NMtDS0=    0 NMtDT0=    0
         I1Cent=           4 NGrid=           0.
 Petite list used in FoFCou.
 Initial guess orbital symmetries:
       Occupied  (A) (A) (A) (A) (A) (A) (A) (A) (A) (A) (A) (A)
                 (A) (A) (A) (A) (A) (A) (A) (A) (A) (A) (A) (A)
                 (A) (A) (A) (A) (A) (A) (A) (A) (A) (A) (A) (A)
                 (A) (A) (A) (A) (A) (A) (A) (A)
       Virtual   (A) (A) (A) (A) (A) (A) (A) (A) (A) (A) (A) (A)
                 (A) (A) (A) (A) (A) (A) (A) (A) (A) (A) (A) (A)
                 (A) (A) (A) (A) (A) (A) (A)
 The electronic state of the initial guess is 1-A.
 Requested convergence on RMS density matrix=1.00D-08 within 128 cycles.
 Requested convergence on MAX density matrix=1.00D-06.
 Requested convergence on             energy=1.00D-06.
 No special actions if energy rises.
 Keep R1 ints in memory in canonical form, NReq=4898789.
 SCF Done:  E(RHF) =  -459.610876810     A.U. after   10 cycles
             Convg  =    0.5522D-08             -V/T =  2.0089
 Range of M.O.s used for correlation:     1    75
 NBasis=    75 NAE=    44 NBE=    44 NFC=     0 NFV=     0
 NROrb=     75 NOA=    44 NOB=    44 NVA=    31 NVB=    31
          Differentiating once with respect to magnetic field using GIAOs.
          Electric field/nuclear overlap derivatives assumed to be zero.
          Keep R3 ints in memory in canonical form, NReq=4863575.
 FoFCou: FMM=F IPFlag=           0 FMFlag=           0 FMFlg1=           0
         NFxFlg=           0 DoJE=F BraDBF=F KetDBF=T FulRan=T
         Omega=  0.000000  0.000000  1.000000  0.000000  0.000000 ICntrl=    6100 IOpCl=  0
         NMat0=    1 NMatS0=    1 NMatT0=    0 NMatD0=    1 NMtDS0=    0 NMtDT0=    0
         I1Cent=           7 NGrid=          31.
 Symmetry not used in FoFCou.
          There are     3 degrees of freedom in the 1st order CPHF.  IDoFFX=0.
      3 vectors produced by pass  0 Test12= 4.55D-14 3.33D-08 XBig12= 6.92D+00 3.71D-01.
 AX will form     3 AO Fock derivatives at one time.
      3 vectors produced by pass  1 Test12= 4.55D-14 3.33D-08 XBig12= 1.12D-02 1.72D-02.
      3 vectors produced by pass  2 Test12= 4.55D-14 3.33D-08 XBig12= 8.25D-05 2.55D-03.
      3 vectors produced by pass  3 Test12= 4.55D-14 3.33D-08 XBig12= 1.47D-06 3.90D-04.
      3 vectors produced by pass  4 Test12= 4.55D-14 3.33D-08 XBig12= 1.70D-08 2.47D-05.
      3 vectors produced by pass  5 Test12= 4.55D-14 3.33D-08 XBig12= 2.10D-10 2.24D-06.
      3 vectors produced by pass  6 Test12= 4.55D-14 3.33D-08 XBig12= 2.41D-12 2.37D-07.
 Inverted reduced A of dimension    21 with in-core refinement.
 Calculating GIAO nuclear magnetic shielding tensors.
 SCF GIAO Magnetic shielding tensor (ppm):
      1  C    Isotropic =   220.8129   Anisotropy =    26.6479
   XX=   222.2893   YX=    -3.9100   ZX=   -12.7941
   XY=    -0.0222   YY=   215.2718   ZY=    -0.1069
   XZ=   -17.0423   YZ=    -1.6279   ZZ=   224.8774
   Eigenvalues:   208.0355   215.8250   238.5781
      2  C    Isotropic =   216.4375   Anisotropy =     9.2731
   XX=   220.6872   YX=     0.3526   ZX=    -4.8481
   XY=    -1.0375   YY=   219.5110   ZY=     2.0082
   XZ=    -4.9355   YZ=    -0.0439   ZZ=   209.1144
   Eigenvalues:   207.2707   219.4223   222.6196
      3  C    Isotropic =   190.4388   Anisotropy =    45.3195
   XX=   189.6184   YX=    14.7506   ZX=    -1.8184
   XY=    14.0534   YY=   213.9619   ZY=     2.3269
   XZ=    -2.0112   YZ=     0.5936   ZZ=   167.7361
   Eigenvalues:   167.3756   183.2890   220.6518
      4  C    Isotropic =   216.7184   Anisotropy =    17.0286
   XX=   223.7305   YX=     6.2670   ZX=    -0.1897
   XY=     5.1753   YY=   218.3897   ZY=     7.3110
   XZ=     0.0168   YZ=     6.0117   ZZ=   208.0350
   Eigenvalues:   204.3986   217.6858   228.0708
      5  C    Isotropic =   209.8615   Anisotropy =    11.7155
   XX=   216.5769   YX=    -1.3197   ZX=     4.1809
   XY=    -4.0682   YY=   209.7142   ZY=     4.1127
   XZ=     0.9255   YZ=     1.7591   ZZ=   203.2932
   Eigenvalues:   201.3983   210.5142   217.6718
      6  C    Isotropic =   217.2210   Anisotropy =    17.1054
   XX=   220.3285   YX=    -5.3070   ZX=    -7.3486
   XY=    -8.2518   YY=   218.3692   ZY=     2.4107
   XZ=    -6.3154   YZ=     0.1798   ZZ=   212.9654
   Eigenvalues:   208.1539   214.8846   228.6246
      7  C    Isotropic =   214.7536   Anisotropy =    18.7277
   XX=   224.4208   YX=     7.3738   ZX=    -1.2984
   XY=     2.9893   YY=   217.5553   ZY=     1.3214
   XZ=     0.0375   YZ=     4.9269   ZZ=   202.2847
   Eigenvalues:   201.5478   215.4743   227.2387
      8  O    Isotropic =   353.9210   Anisotropy =    92.0136
   XX=   351.5519   YX=   -41.6461   ZX=   -19.6719
   XY=   -19.1017   YY=   359.6584   ZY=    29.8172
   XZ=   -25.8718   YZ=    44.9374   ZZ=   350.5528
   Eigenvalues:   316.8496   329.6501   415.2635
      9  C    Isotropic =   211.2598   Anisotropy =    18.5468
   XX=   220.9384   YX=    -1.5852   ZX=     3.9499
   XY=    -2.9090   YY=   209.2832   ZY=    -3.0157
   XZ=     9.4121   YZ=     1.0848   ZZ=   203.5579
   Eigenvalues:   201.2819   208.8733   223.6243
     10  C    Isotropic =   224.2923   Anisotropy =    19.7453
   XX=   221.0422   YX=     1.7313   ZX=    -0.5960
   XY=     2.8345   YY=   224.1733   ZY=    -9.4078
   XZ=    -1.8009   YZ=   -12.6954   ZZ=   227.6614
   Eigenvalues:   214.5814   220.8397   237.4558
     11  C    Isotropic =   220.9329   Anisotropy =    24.8605
   XX=   226.9542   YX=    11.2200   ZX=     1.8641
   XY=    11.8668   YY=   224.6268   ZY=    -2.6390
   XZ=     4.8167   YZ=     0.3778   ZZ=   211.2179
   Eigenvalues:   209.2091   216.0831   237.5066
     12  H    Isotropic =    32.7462   Anisotropy =     9.5000
   XX=    32.0465   YX=     0.2508   ZX=     0.8054
   XY=     0.2705   YY=    27.2070   ZY=     0.3484
   XZ=     0.7291   YZ=     0.3098   ZZ=    38.9850
   Eigenvalues:    27.1859    31.9731    39.0795
     13  H    Isotropic =    32.5802   Anisotropy =    14.1190
   XX=    36.2612   YX=    -6.1893   ZX=    -3.5576
   XY=    -6.0608   YY=    33.0638   ZY=     1.0414
   XZ=    -3.7617   YZ=     1.4892   ZZ=    28.4156
   Eigenvalues:    26.5988    29.1490    41.9929
     14  H    Isotropic =    32.4833   Anisotropy =    13.8439
   XX=    35.0602   YX=     5.6848   ZX=    -4.0181
   XY=     5.9800   YY=    33.8413   ZY=    -1.5275
   XZ=    -4.3227   YZ=    -1.9477   ZZ=    28.5483
   Eigenvalues:    26.2788    29.4584    41.7125
     15  H    Isotropic =    32.3949   Anisotropy =    14.1949
   XX=    35.7451   YX=     0.2519   ZX=     6.9357
   XY=     0.4266   YY=    27.2122   ZY=     0.0449
   XZ=     6.7106   YZ=     0.1405   ZZ=    34.2272
   Eigenvalues:    27.1793    28.1472    41.8582
     16  H    Isotropic =    32.2199   Anisotropy =     5.1493
   XX=    31.6818   YX=    -0.3894   ZX=     0.2365
   XY=    -1.2039   YY=    29.5931   ZY=    -1.0518
   XZ=     1.2491   YZ=    -0.3947   ZZ=    35.3849
   Eigenvalues:    29.2893    31.7178    35.6528
     17  H    Isotropic =    32.4591   Anisotropy =    12.3285
   XX=    32.0737   YX=    -3.2678   ZX=    -0.4959
   XY=    -3.8411   YY=    37.3719   ZY=     4.8955
   XZ=    -0.3887   YZ=     4.4106   ZZ=    27.9318
   Eigenvalues:    25.8582    30.8410    40.6782
     18  H    Isotropic =    32.2409   Anisotropy =    13.4698
   XX=    29.3194   YX=     0.6172   ZX=     3.1702
   XY=     0.6046   YY=    26.9971   ZY=     1.2473
   XZ=     2.5422   YZ=     1.1667   ZZ=    40.4062
   Eigenvalues:    26.8226    28.6793    41.2208
     19  H    Isotropic =    31.9202   Anisotropy =    11.3366
   XX=    30.4977   YX=     1.8115   ZX=    -2.7024
   XY=     2.0890   YY=    28.9128   ZY=    -4.1157
   XZ=    -2.9841   YZ=    -4.1554   ZZ=    36.3502
   Eigenvalues:    26.9178    29.3649    39.4780
     20  H    Isotropic =    33.0142   Anisotropy =     8.3528
   XX=    33.1692   YX=    -1.3139   ZX=     0.9319
   XY=    -1.4404   YY=    30.9190   ZY=    -4.6702
   XZ=     0.7923   YZ=    -4.9970   ZZ=    34.9543
   Eigenvalues:    27.6154    32.8444    38.5827
     21  H    Isotropic =    32.4197   Anisotropy =    14.7348
   XX=    32.8935   YX=     5.7264   ZX=     0.5905
   XY=     5.6587   YY=    37.6818   ZY=     3.6870
   XZ=     0.6393   YZ=     3.8092   ZZ=    26.6837
   Eigenvalues:    25.3019    29.7142    42.2429
     22  H    Isotropic =    32.9470   Anisotropy =    12.1900
   XX=    33.0908   YX=    -3.2717   ZX=    -2.2457
   XY=    -3.6149   YY=    37.9493   ZY=     3.2136
   XZ=    -3.1836   YZ=     3.4430   ZZ=    27.8008
   Eigenvalues:    26.3274    31.4398    41.0736
     23  H    Isotropic =    32.0528   Anisotropy =    11.9866
   XX=    29.3793   YX=    -0.7109   ZX=     1.9487
   XY=    -0.6985   YY=    30.8885   ZY=    -5.6961
   XZ=     1.9259   YZ=    -5.8165   ZZ=    35.8907
   Eigenvalues:    27.0045    29.1100    40.0439
     24  H    Isotropic =    35.0898   Anisotropy =    19.1299
   XX=    31.4168   YX=    -1.9622   ZX=    -4.2573
   XY=    -0.8910   YY=    43.1941   ZY=     7.7869
   XZ=    -3.4840   YZ=     8.7029   ZZ=    30.6584
   Eigenvalues:    25.1897    32.2366    47.8431
     25  H    Isotropic =    32.3988   Anisotropy =    12.7738
   XX=    33.1865   YX=    -3.8711   ZX=    -3.6616
   XY=    -3.7950   YY=    31.6234   ZY=     5.6658
   XZ=    -3.4898   YZ=     5.0420   ZZ=    32.3866
   Eigenvalues:    26.6040    29.6778    40.9147
     26  H    Isotropic =    32.7537   Anisotropy =     8.8651
   XX=    30.7024   YX=    -2.4136   ZX=    -2.1378
   XY=    -2.6712   YY=    29.7361   ZY=     1.0566
   XZ=    -1.8389   YZ=     1.0180   ZZ=    37.8226
   Eigenvalues:    27.6077    31.9896    38.6638
     27  H    Isotropic =    32.6354   Anisotropy =    10.0769
   XX=    32.3419   YX=     3.9578   ZX=     2.3197
   XY=     3.5430   YY=    37.1675   ZY=    -2.3250
   XZ=     2.1454   YZ=    -2.7770   ZZ=    28.3967
   Eigenvalues:    25.9589    32.5939    39.3533
     28  H    Isotropic =    32.5495   Anisotropy =    14.7610
   XX=    35.9999   YX=    -4.6093   ZX=     4.7306
   XY=    -4.5693   YY=    31.2820   ZY=    -4.5348
   XZ=     4.9561   YZ=    -4.6642   ZZ=    30.3665
   Eigenvalues:    26.1509    29.1074    42.3901
     29  H    Isotropic =    32.2303   Anisotropy =     8.9166
   XX=    31.9899   YX=     0.5085   ZX=     0.9322
   XY=     0.6276   YY=    33.0192   ZY=     5.6260
   XZ=     1.3168   YZ=     5.4975   ZZ=    31.6819
   Eigenvalues:    26.7070    31.8092    38.1748
     30  H    Isotropic =    32.1667   Anisotropy =    12.2776
   XX=    32.8274   YX=     3.8311   ZX=    -2.9209
   XY=     3.8611   YY=    32.0774   ZY=    -5.8495
   XZ=    -2.6586   YZ=    -5.2576   ZZ=    31.5954
   Eigenvalues:    26.1884    29.9600    40.3518
     31  H    Isotropic =    32.4775   Anisotropy =    14.8914
   XX=    41.6910   YX=    -1.3966   ZX=     2.7099
   XY=    -1.3279   YY=    28.8149   ZY=    -0.8882
   XZ=     3.0578   YZ=    -1.0927   ZZ=    26.9268
   Eigenvalues:    26.1751    28.8524    42.4051
 End of Minotr Frequency-dependent properties file   721 does not exist.
 End of Minotr Frequency-dependent properties file   722 does not exist.

 **********************************************************************

            Population analysis using the SCF density.

 **********************************************************************

 Orbital symmetries:
       Occupied  (A) (A) (A) (A) (A) (A) (A) (A) (A) (A) (A) (A)
                 (A) (A) (A) (A) (A) (A) (A) (A) (A) (A) (A) (A)
                 (A) (A) (A) (A) (A) (A) (A) (A) (A) (A) (A) (A)
                 (A) (A) (A) (A) (A) (A) (A) (A)
       Virtual   (A) (A) (A) (A) (A) (A) (A) (A) (A) (A) (A) (A)
                 (A) (A) (A) (A) (A) (A) (A) (A) (A) (A) (A) (A)
                 (A) (A) (A) (A) (A) (A) (A)
 The electronic state is 1-A.
 Alpha  occ. eigenvalues --  -20.23642 -11.08507 -11.04735 -11.04210 -11.04120
 Alpha  occ. eigenvalues --  -11.03673 -11.03603 -11.03594 -11.03356 -11.02769
 Alpha  occ. eigenvalues --  -11.01988  -1.27730  -1.08175  -1.03382  -0.96720
 Alpha  occ. eigenvalues --   -0.94523  -0.88526  -0.87710  -0.80379  -0.78316
 Alpha  occ. eigenvalues --   -0.72914  -0.67990  -0.63502  -0.60877  -0.58783
 Alpha  occ. eigenvalues --   -0.57244  -0.56468  -0.54550  -0.53832  -0.50987
 Alpha  occ. eigenvalues --   -0.50694  -0.49694  -0.49401  -0.47879  -0.47066
 Alpha  occ. eigenvalues --   -0.45599  -0.44696  -0.42266  -0.41852  -0.40605
 Alpha  occ. eigenvalues --   -0.39052  -0.38795  -0.36537  -0.32883
 Alpha virt. eigenvalues --    0.53297   0.55265   0.56707   0.59959   0.60796
 Alpha virt. eigenvalues --    0.61739   0.62449   0.64823   0.65335   0.67021
 Alpha virt. eigenvalues --    0.67271   0.69110   0.70344   0.71522   0.71841
 Alpha virt. eigenvalues --    0.72709   0.73273   0.74971   0.75367   0.76054
 Alpha virt. eigenvalues --    0.76885   0.77912   0.78894   0.80023   0.80207
 Alpha virt. eigenvalues --    0.80789   0.82144   0.82995   0.85668   0.86067
 Alpha virt. eigenvalues --    0.87589
          Condensed to atoms (all electrons):
              1          2          3          4          5          6
     1  C    4.742158   0.364818   0.000023   0.000750   0.000014  -0.024947
     2  C    0.364818   4.747057  -0.019544  -0.022195  -0.002525   0.363037
     3  C    0.000023  -0.019544   4.740289  -0.020486   0.358860  -0.008139
     4  C    0.000750  -0.022195  -0.020486   4.758026   0.358321   0.363178
     5  C    0.000014  -0.002525   0.358860   0.358321   4.776536  -0.021070
     6  C   -0.024947   0.363037  -0.008139   0.363178  -0.021070   4.757055
     7  C   -0.024377   0.359460   0.358484  -0.006435  -0.022263  -0.022088
     8  O   -0.000001   0.000256   0.267322   0.000212  -0.017029   0.000007
     9  C    0.000000   0.000004  -0.018854  -0.021594   0.357835   0.000285
    10  C    0.000000   0.000005  -0.001763  -0.001654  -0.020331  -0.000373
    11  C    0.000000   0.000000  -0.001200   0.000618  -0.021061  -0.000005
    12  H    0.381988  -0.020794   0.000006   0.000014   0.000008  -0.002306
    13  H    0.382504  -0.020213   0.000016  -0.000018  -0.000001   0.001301
    14  H    0.382406  -0.020084  -0.000012   0.000014   0.000000  -0.002252
    15  H   -0.024915   0.383446   0.001211  -0.000279   0.000010  -0.023735
    16  H    0.000044  -0.001450   0.374910   0.000087  -0.023156  -0.000042
    17  H   -0.000016   0.001250   0.000943   0.382930  -0.020222  -0.021096
    18  H    0.000007  -0.002483   0.000568   0.382026  -0.022343  -0.023929
    19  H    0.000000   0.000062  -0.023889  -0.023868   0.379725   0.001240
    20  H   -0.004875  -0.022211  -0.000066  -0.023215  -0.001918   0.382011
    21  H   -0.000267  -0.021516   0.000070  -0.021127   0.001198   0.383005
    22  H   -0.005577  -0.020163  -0.021218   0.000056   0.001119   0.001067
    23  H    0.001324  -0.021434  -0.023225  -0.000040  -0.002679   0.000417
    24  H    0.000001   0.000004  -0.040858  -0.000037   0.002451  -0.000001
    25  H    0.000000  -0.000001   0.001072  -0.002671  -0.023439   0.000020
    26  H    0.000000   0.000002  -0.000596   0.000029  -0.001553  -0.000046
    27  H    0.000000   0.000003   0.000033  -0.000375  -0.001473  -0.000694
    28  H    0.000000   0.000000   0.000014   0.000011   0.001108   0.000008
    29  H    0.000000   0.000000  -0.000142  -0.000003  -0.001115   0.000000
    30  H    0.000000   0.000000  -0.000018   0.000017  -0.002504   0.000000
    31  H    0.000000   0.000000   0.000000  -0.000014   0.001140   0.000000
              7          8          9         10         11         12
     1  C   -0.024377  -0.000001   0.000000   0.000000   0.000000   0.381988
     2  C    0.359460   0.000256   0.000004   0.000005   0.000000  -0.020794
     3  C    0.358484   0.267322  -0.018854  -0.001763  -0.001200   0.000006
     4  C   -0.006435   0.000212  -0.021594  -0.001654   0.000618   0.000014
     5  C   -0.022263  -0.017029   0.357835  -0.020331  -0.021061   0.000008
     6  C   -0.022088   0.000007   0.000285  -0.000373  -0.000005  -0.002306
     7  C    4.787551  -0.020331   0.000573   0.000008   0.000002  -0.001963
     8  O   -0.020331   7.847423   0.000031   0.000010  -0.000773  -0.000001
     9  C    0.000573   0.000031   4.740691   0.364080   0.364295   0.000000
    10  C    0.000008   0.000010   0.364080   4.744948  -0.026423   0.000000
    11  C    0.000002  -0.000773   0.364295  -0.026423   4.740394   0.000000
    12  H   -0.001963  -0.000001   0.000000   0.000000   0.000000   0.633564
    13  H   -0.002363   0.000000   0.000000   0.000000   0.000000  -0.021932
    14  H    0.001297   0.000000   0.000000   0.000000   0.000000  -0.021647
    15  H   -0.024765  -0.000006   0.000000   0.000000   0.000000   0.001941
    16  H   -0.027542  -0.018982  -0.003056  -0.000633  -0.000022   0.000014
    17  H    0.000049  -0.000003  -0.005295  -0.000394   0.000041  -0.000001
    18  H   -0.000128  -0.000003   0.001208   0.000010  -0.000015  -0.000001
    19  H   -0.000700  -0.001297  -0.024545   0.001181  -0.002540   0.000000
    20  H   -0.000070   0.000000   0.000123  -0.000547  -0.000003   0.000336
    21  H    0.001173   0.000000  -0.000012   0.000007   0.000000   0.000012
    22  H    0.381444  -0.001375  -0.000013   0.000000   0.000000   0.000031
    23  H    0.380966  -0.000600   0.000009   0.000000   0.000000   0.000002
    24  H   -0.003131   0.257457  -0.000025  -0.000001   0.000031   0.000000
    25  H   -0.000014  -0.000008   0.381804  -0.025064  -0.025047   0.000000
    26  H   -0.000005   0.000005  -0.020308   0.382142  -0.001975   0.000000
    27  H   -0.000002   0.000000  -0.019860   0.382559   0.001339   0.000000
    28  H    0.000000   0.000000  -0.019765   0.382283  -0.002774   0.000000
    29  H    0.000003  -0.000112  -0.020262  -0.002688   0.382496   0.000000
    30  H   -0.000002  -0.000055  -0.020045   0.001319   0.382766   0.000000
    31  H    0.000000   0.000016  -0.020221  -0.001947   0.381658   0.000000
             13         14         15         16         17         18
     1  C    0.382504   0.382406  -0.024915   0.000044  -0.000016   0.000007
     2  C   -0.020213  -0.020084   0.383446  -0.001450   0.001250  -0.002483
     3  C    0.000016  -0.000012   0.001211   0.374910   0.000943   0.000568
     4  C   -0.000018   0.000014  -0.000279   0.000087   0.382930   0.382026
     5  C   -0.000001   0.000000   0.000010  -0.023156  -0.020222  -0.022343
     6  C    0.001301  -0.002252  -0.023735  -0.000042  -0.021096  -0.023929
     7  C   -0.002363   0.001297  -0.024765  -0.027542   0.000049  -0.000128
     8  O    0.000000   0.000000  -0.000006  -0.018982  -0.000003  -0.000003
     9  C    0.000000   0.000000   0.000000  -0.003056  -0.005295   0.001208
    10  C    0.000000   0.000000   0.000000  -0.000633  -0.000394   0.000010
    11  C    0.000000   0.000000   0.000000  -0.000022   0.000041  -0.000015
    12  H   -0.021932  -0.021647   0.001941   0.000014  -0.000001  -0.000001
    13  H    0.632120  -0.021704  -0.002587   0.000007   0.000000   0.000000
    14  H   -0.021704   0.629696  -0.002221  -0.000007  -0.000001   0.000000
    15  H   -0.002587  -0.002221   0.652373  -0.000012  -0.000018   0.000330
    16  H    0.000007  -0.000007  -0.000012   0.663180  -0.000020  -0.000024
    17  H    0.000000  -0.000001  -0.000018  -0.000020   0.636847  -0.024150
    18  H    0.000000   0.000000   0.000330  -0.000024  -0.024150   0.648184
    19  H    0.000000   0.000000   0.000000   0.001789   0.000792  -0.007357
    20  H    0.000063  -0.000101   0.001877  -0.000515  -0.002099   0.002046
    21  H   -0.000019   0.000168  -0.005185   0.000003  -0.002375  -0.002285
    22  H    0.000053   0.000083   0.000636  -0.002046   0.000000   0.000004
    23  H    0.000050  -0.000038  -0.006667   0.001985   0.000002  -0.000318
    24  H    0.000000   0.000000  -0.000001  -0.003513   0.000001   0.000001
    25  H    0.000000   0.000000   0.000000   0.000017   0.000049   0.000050
    26  H    0.000000   0.000000   0.000000  -0.000470   0.000027  -0.000003
    27  H    0.000000   0.000000   0.000000   0.000033  -0.000232   0.000005
    28  H    0.000000   0.000000   0.000000  -0.000014  -0.000022   0.000000
    29  H    0.000000   0.000000   0.000000  -0.000074   0.000000   0.000000
    30  H    0.000000   0.000000   0.000000   0.000016   0.000002  -0.000001
    31  H    0.000000   0.000000   0.000000  -0.000007  -0.000003   0.000000
             19         20         21         22         23         24
     1  C    0.000000  -0.004875  -0.000267  -0.005577   0.001324   0.000001
     2  C    0.000062  -0.022211  -0.021516  -0.020163  -0.021434   0.000004
     3  C   -0.023889  -0.000066   0.000070  -0.021218  -0.023225  -0.040858
     4  C   -0.023868  -0.023215  -0.021127   0.000056  -0.000040  -0.000037
     5  C    0.379725  -0.001918   0.001198   0.001119  -0.002679   0.002451
     6  C    0.001240   0.382011   0.383005   0.001067   0.000417  -0.000001
     7  C   -0.000700  -0.000070   0.001173   0.381444   0.380966  -0.003131
     8  O   -0.001297   0.000000   0.000000  -0.001375  -0.000600   0.257457
     9  C   -0.024545   0.000123  -0.000012  -0.000013   0.000009  -0.000025
    10  C    0.001181  -0.000547   0.000007   0.000000   0.000000  -0.000001
    11  C   -0.002540  -0.000003   0.000000   0.000000   0.000000   0.000031
    12  H    0.000000   0.000336   0.000012   0.000031   0.000002   0.000000
    13  H    0.000000   0.000063  -0.000019   0.000053   0.000050   0.000000
    14  H    0.000000  -0.000101   0.000168   0.000083  -0.000038   0.000000
    15  H    0.000000   0.001877  -0.005185   0.000636  -0.006667  -0.000001
    16  H    0.001789  -0.000515   0.000003  -0.002046   0.001985  -0.003513
    17  H    0.000792  -0.002099  -0.002375   0.000000   0.000002   0.000001
    18  H   -0.007357   0.002046  -0.002285   0.000004  -0.000318   0.000001
    19  H    0.645324  -0.000002  -0.000034  -0.000020   0.000288   0.000082
    20  H   -0.000002   0.644251  -0.023931  -0.000014  -0.000024   0.000000
    21  H   -0.000034  -0.023931   0.640019  -0.000025  -0.000021   0.000000
    22  H   -0.000020  -0.000014  -0.000025   0.644393  -0.025086   0.000530
    23  H    0.000288  -0.000024  -0.000021  -0.025086   0.640859  -0.000016
    24  H    0.000082   0.000000   0.000000   0.000530  -0.000016   0.611536
    25  H   -0.002870   0.000008  -0.000001   0.000000  -0.000001   0.000002
    26  H   -0.000003  -0.000085   0.000001   0.000001   0.000000   0.000002
    27  H    0.000014  -0.000436   0.000023   0.000000   0.000000   0.000000
    28  H   -0.000031   0.000010   0.000000   0.000000   0.000000   0.000000
    29  H    0.000004   0.000000   0.000000   0.000000   0.000000   0.000050
    30  H    0.000249   0.000000   0.000000   0.000000   0.000000   0.000008
    31  H    0.000028   0.000000   0.000000   0.000000   0.000000  -0.000002
             25         26         27         28         29         30
     1  C    0.000000   0.000000   0.000000   0.000000   0.000000   0.000000
     2  C   -0.000001   0.000002   0.000003   0.000000   0.000000   0.000000
     3  C    0.001072  -0.000596   0.000033   0.000014  -0.000142  -0.000018
     4  C   -0.002671   0.000029  -0.000375   0.000011  -0.000003   0.000017
     5  C   -0.023439  -0.001553  -0.001473   0.001108  -0.001115  -0.002504
     6  C    0.000020  -0.000046  -0.000694   0.000008   0.000000   0.000000
     7  C   -0.000014  -0.000005  -0.000002   0.000000   0.000003  -0.000002
     8  O   -0.000008   0.000005   0.000000   0.000000  -0.000112  -0.000055
     9  C    0.381804  -0.020308  -0.019860  -0.019765  -0.020262  -0.020045
    10  C   -0.025064   0.382142   0.382559   0.382283  -0.002688   0.001319
    11  C   -0.025047  -0.001975   0.001339  -0.002774   0.382496   0.382766
    12  H    0.000000   0.000000   0.000000   0.000000   0.000000   0.000000
    13  H    0.000000   0.000000   0.000000   0.000000   0.000000   0.000000
    14  H    0.000000   0.000000   0.000000   0.000000   0.000000   0.000000
    15  H    0.000000   0.000000   0.000000   0.000000   0.000000   0.000000
    16  H    0.000017  -0.000470   0.000033  -0.000014  -0.000074   0.000016
    17  H    0.000049   0.000027  -0.000232  -0.000022   0.000000   0.000002
    18  H    0.000050  -0.000003   0.000005   0.000000   0.000000  -0.000001
    19  H   -0.002870  -0.000003   0.000014  -0.000031   0.000004   0.000249
    20  H    0.000008  -0.000085  -0.000436   0.000010   0.000000   0.000000
    21  H   -0.000001   0.000001   0.000023   0.000000   0.000000   0.000000
    22  H    0.000000   0.000001   0.000000   0.000000   0.000000   0.000000
    23  H   -0.000001   0.000000   0.000000   0.000000   0.000000   0.000000
    24  H    0.000002   0.000002   0.000000   0.000000   0.000050   0.000008
    25  H    0.656330   0.001924  -0.002499  -0.002328   0.001941  -0.001713
    26  H    0.001924   0.633327  -0.021887  -0.021981   0.000367   0.000006
    27  H   -0.002499  -0.021887   0.632999  -0.022205   0.000019  -0.000037
    28  H   -0.002328  -0.021981  -0.022205   0.631129  -0.000035   0.000038
    29  H    0.001941   0.000367   0.000019  -0.000035   0.624263  -0.020832
    30  H   -0.001713   0.000006  -0.000037   0.000038  -0.020832   0.624439
    31  H   -0.003378  -0.000003   0.000019   0.000089  -0.022385  -0.021911
             31
     1  C    0.000000
     2  C    0.000000
     3  C    0.000000
     4  C   -0.000014
     5  C    0.001140
     6  C    0.000000
     7  C    0.000000
     8  O    0.000016
     9  C   -0.020221
    10  C   -0.001947
    11  C    0.381658
    12  H    0.000000
    13  H    0.000000
    14  H    0.000000
    15  H    0.000000
    16  H   -0.000007
    17  H   -0.000003
    18  H    0.000000
    19  H    0.000028
    20  H    0.000000
    21  H    0.000000
    22  H    0.000000
    23  H    0.000000
    24  H   -0.000002
    25  H   -0.003378
    26  H   -0.000003
    27  H    0.000019
    28  H    0.000089
    29  H   -0.022385
    30  H   -0.021911
    31  H    0.637814
 Mulliken atomic charges:
              1
     1  C   -0.171063
     2  C   -0.024791
     3  C    0.076190
     4  C   -0.102279
     5  C   -0.033641
     6  C   -0.101908
     7  C   -0.114833
     8  O   -0.312163
     9  C   -0.017083
    10  C   -0.176736
    11  C   -0.171799
    12  H    0.050730
    13  H    0.052723
    14  H    0.054404
    15  H    0.048567
    16  H    0.039499
    17  H    0.053013
    18  H    0.048599
    19  H    0.056376
    20  H    0.049386
    21  H    0.051120
    22  H    0.046119
    23  H    0.054247
    24  H    0.175429
    25  H    0.045816
    26  H    0.051083
    27  H    0.052654
    28  H    0.054466
    29  H    0.058506
    30  H    0.058260
    31  H    0.049107
 Sum of Mulliken atomic charges =   0.00000
 Mulliken charges with hydrogens summed into heavy atoms:
              1
     1  C   -0.013206
     2  C    0.023775
     3  C    0.115690
     4  C   -0.000667
     5  C    0.022736
     6  C   -0.001402
     7  C   -0.014467
     8  O   -0.136734
     9  C    0.028733
    10  C   -0.018532
    11  C   -0.005926
 Sum of Mulliken charges with hydrogens summed into heavy atoms =   0.00000
 Electronic spatial extent (au):  <R**2>=           2027.0492
 Charge=              0.0000 electrons
 Dipole moment (field-independent basis, Debye):
    X=             -1.1401    Y=             -0.3480    Z=              0.5716  Tot=              1.3219
 Quadrupole moment (field-independent basis, Debye-Ang):
   XX=            -69.0428   YY=            -67.4754   ZZ=            -66.8074
   XY=             -2.9816   XZ=              0.3619   YZ=              2.5465
 Traceless Quadrupole moment (field-independent basis, Debye-Ang):
   XX=             -1.2676   YY=              0.2998   ZZ=              0.9678
   XY=             -2.9816   XZ=              0.3619   YZ=              2.5465
 Octapole moment (field-independent basis, Debye-Ang**2):
  XXX=              3.4234  YYY=             17.2268  ZZZ=             -1.0484  XYY=             -6.0489
  XXY=             -0.1319  XXZ=             -2.0651  XZZ=              1.8681  YZZ=              7.0160
  YYZ=              6.2835  XYZ=              0.0949
 Hexadecapole moment (field-independent basis, Debye-Ang**3):
 XXXX=          -1621.4308 YYYY=           -600.7457 ZZZZ=           -328.7500 XXXY=             -1.7080
 XXXZ=              7.0691 YYYX=             -4.6453 YYYZ=             23.0660 ZZZX=              2.3418
 ZZZY=              1.2348 XXYY=           -375.7085 XXZZ=           -326.9057 YYZZ=           -157.5888
 XXYZ=             -0.3425 YYXZ=             -0.5505 ZZXY=              4.1022
 N-N= 6.982065277926D+02 E-N=-2.468501851902D+03  KE= 4.555434463637D+02
 ******************************Gaussian NBO Version 3.1******************************
             N A T U R A L   A T O M I C   O R B I T A L   A N D
          N A T U R A L   B O N D   O R B I T A L   A N A L Y S I S
 ******************************Gaussian NBO Version 3.1******************************
       /RESON  / : Allow strongly delocalized NBO set
       /NLMO   / : Form Natural Localized Molecular Orbitals
       /NMR /    : Analyze NMR Sheilding Tensor 

 Analyzing the SCF density

 Job title: comment                                                         

 Storage needed:     19864 in NPA,     23691 in NBO,     45933 in NLMO (  33549317 available)


 NATURAL POPULATIONS:  Natural atomic orbital occupancies 
                                                          
   NAO  Atom  No  lang   Type(AO)    Occupancy      Energy
 ----------------------------------------------------------
     1    C    1  S      Cor( 1S)     1.99998     -10.96713
     2    C    1  S      Val( 2S)     1.08075      -0.18451
     3    C    1  px     Val( 2p)     1.01591       0.08262
     4    C    1  py     Val( 2p)     1.02850       0.08149
     5    C    1  pz     Val( 2p)     1.00071       0.08608

     6    C    2  S      Cor( 1S)     1.99997     -10.99020
     7    C    2  S      Val( 2S)     1.08079      -0.19399
     8    C    2  px     Val( 2p)     0.97201       0.10330
     9    C    2  py     Val( 2p)     0.95396       0.11139
    10    C    2  pz     Val( 2p)     0.97938       0.10334

    11    C    3  S      Cor( 1S)     1.99989     -11.03404
    12    C    3  S      Val( 2S)     1.08649      -0.21496
    13    C    3  px     Val( 2p)     0.92515       0.10052
    14    C    3  py     Val( 2p)     0.85710       0.11183
    15    C    3  pz     Val( 2p)     0.98702       0.09044

    16    C    4  S      Cor( 1S)     1.99996     -10.97474
    17    C    4  S      Val( 2S)     1.08598      -0.19022
    18    C    4  px     Val( 2p)     0.98371       0.09760
    19    C    4  py     Val( 2p)     0.99584       0.09689
    20    C    4  pz     Val( 2p)     0.99928       0.09330

    21    C    5  S      Cor( 1S)     1.99995     -10.98750
    22    C    5  S      Val( 2S)     1.10365      -0.20981
    23    C    5  px     Val( 2p)     0.95801       0.11048
    24    C    5  py     Val( 2p)     0.96268       0.10902
    25    C    5  pz     Val( 2p)     0.98752       0.09922

    26    C    6  S      Cor( 1S)     1.99996     -10.97465
    27    C    6  S      Val( 2S)     1.08340      -0.18828
    28    C    6  px     Val( 2p)     0.98571       0.09682
    29    C    6  py     Val( 2p)     0.98862       0.09476
    30    C    6  pz     Val( 2p)     1.00696       0.09356

    31    C    7  S      Cor( 1S)     1.99996     -10.97445
    32    C    7  S      Val( 2S)     1.09375      -0.19914
    33    C    7  px     Val( 2p)     0.98601       0.08955
    34    C    7  py     Val( 2p)     0.98716       0.09455
    35    C    7  pz     Val( 2p)     1.02486       0.08168

    36    O    8  S      Cor( 1S)     1.99999     -20.14025
    37    O    8  S      Val( 2S)     1.74976      -0.99777
    38    O    8  px     Val( 2p)     1.66996      -0.25409
    39    O    8  py     Val( 2p)     1.17880      -0.03807
    40    O    8  pz     Val( 2p)     1.73470      -0.27711

    41    C    9  S      Cor( 1S)     1.99996     -10.98628
    42    C    9  S      Val( 2S)     1.08621      -0.19205
    43    C    9  px     Val( 2p)     0.95716       0.11361
    44    C    9  py     Val( 2p)     0.96646       0.11309
    45    C    9  pz     Val( 2p)     0.96647       0.11599

    46    C   10  S      Cor( 1S)     1.99997     -10.96126
    47    C   10  S      Val( 2S)     1.07983      -0.17847
    48    C   10  px     Val( 2p)     1.03024       0.08452
    49    C   10  py     Val( 2p)     1.01706       0.08851
    50    C   10  pz     Val( 2p)     1.00582       0.09014

    51    C   11  S      Cor( 1S)     1.99997     -10.95366
    52    C   11  S      Val( 2S)     1.08076      -0.17088
    53    C   11  px     Val( 2p)     1.00541       0.09810
    54    C   11  py     Val( 2p)     1.01030       0.09800
    55    C   11  pz     Val( 2p)     1.03220       0.09476

    56    H   12  S      Val( 1S)     0.96648       0.06950

    57    H   13  S      Val( 1S)     0.96464       0.07178

    58    H   14  S      Val( 1S)     0.96305       0.07267

    59    H   15  S      Val( 1S)     0.97577       0.06606

    60    H   16  S      Val( 1S)     0.99633       0.04902

    61    H   17  S      Val( 1S)     0.96797       0.07249

    62    H   18  S      Val( 1S)     0.97236       0.07034

    63    H   19  S      Val( 1S)     0.96960       0.07520

    64    H   20  S      Val( 1S)     0.97165       0.07127

    65    H   21  S      Val( 1S)     0.96934       0.06992

    66    H   22  S      Val( 1S)     0.97348       0.06141

    67    H   23  S      Val( 1S)     0.96644       0.07175

    68    H   24  S      Val( 1S)     0.81213       0.07439

    69    H   25  S      Val( 1S)     0.97940       0.06911

    70    H   26  S      Val( 1S)     0.96598       0.07684

    71    H   27  S      Val( 1S)     0.96466       0.07832

    72    H   28  S      Val( 1S)     0.96240       0.07732

    73    H   29  S      Val( 1S)     0.95947       0.09102

    74    H   30  S      Val( 1S)     0.95948       0.09113

    75    H   31  S      Val( 1S)     0.96780       0.08086


 Summary of Natural Population Analysis:                  
                                                          
                                       Natural Population 
                Natural  -----------------------------------------------
    Atom  No    Charge         Core      Valence    Rydberg      Total
 -----------------------------------------------------------------------
      C    1   -0.12584      1.99998     4.12586    0.00000     6.12584
      C    2    0.01390      1.99997     3.98613    0.00000     5.98610
      C    3    0.14434      1.99989     3.85577    0.00000     5.85566
      C    4   -0.06477      1.99996     4.06481    0.00000     6.06477
      C    5   -0.01181      1.99995     4.01186    0.00000     6.01181
      C    6   -0.06465      1.99996     4.06469    0.00000     6.06465
      C    7   -0.09173      1.99996     4.09177    0.00000     6.09173
      O    8   -0.33321      1.99999     6.33322    0.00000     8.33321
      C    9    0.02374      1.99996     3.97630    0.00000     5.97626
      C   10   -0.13291      1.99997     4.13294    0.00000     6.13291
      C   11   -0.12864      1.99997     4.12867    0.00000     6.12864
      H   12    0.03352      0.00000     0.96648    0.00000     0.96648
      H   13    0.03536      0.00000     0.96464    0.00000     0.96464
      H   14    0.03695      0.00000     0.96305    0.00000     0.96305
      H   15    0.02423      0.00000     0.97577    0.00000     0.97577
      H   16    0.00367      0.00000     0.99633    0.00000     0.99633
      H   17    0.03203      0.00000     0.96797    0.00000     0.96797
      H   18    0.02764      0.00000     0.97236    0.00000     0.97236
      H   19    0.03040      0.00000     0.96960    0.00000     0.96960
      H   20    0.02835      0.00000     0.97165    0.00000     0.97165
      H   21    0.03066      0.00000     0.96934    0.00000     0.96934
      H   22    0.02652      0.00000     0.97348    0.00000     0.97348
      H   23    0.03356      0.00000     0.96644    0.00000     0.96644
      H   24    0.18787      0.00000     0.81213    0.00000     0.81213
      H   25    0.02060      0.00000     0.97940    0.00000     0.97940
      H   26    0.03402      0.00000     0.96598    0.00000     0.96598
      H   27    0.03534      0.00000     0.96466    0.00000     0.96466
      H   28    0.03760      0.00000     0.96240    0.00000     0.96240
      H   29    0.04053      0.00000     0.95947    0.00000     0.95947
      H   30    0.04052      0.00000     0.95948    0.00000     0.95948
      H   31    0.03220      0.00000     0.96780    0.00000     0.96780
 =======================================================================
   * Total *    0.00000     21.99955    66.00045    0.00000    88.00000

                                 Natural Population      
 --------------------------------------------------------
   Core                      21.99955 ( 99.9979% of  22)
   Valence                   66.00045 (100.0007% of  66)
   Natural Minimal Basis     88.00000 (100.0000% of  88)
   Natural Rydberg Basis      0.00000 (  0.0000% of  88)
 --------------------------------------------------------

    Atom  No          Natural Electron Configuration
 ----------------------------------------------------------------------------
      C    1      [core]2S( 1.08)2p( 3.05)
      C    2      [core]2S( 1.08)2p( 2.91)
      C    3      [core]2S( 1.09)2p( 2.77)
      C    4      [core]2S( 1.09)2p( 2.98)
      C    5      [core]2S( 1.10)2p( 2.91)
      C    6      [core]2S( 1.08)2p( 2.98)
      C    7      [core]2S( 1.09)2p( 3.00)
      O    8      [core]2S( 1.75)2p( 4.58)
      C    9      [core]2S( 1.09)2p( 2.89)
      C   10      [core]2S( 1.08)2p( 3.05)
      C   11      [core]2S( 1.08)2p( 3.05)
      H   12            1S( 0.97)
      H   13            1S( 0.96)
      H   14            1S( 0.96)
      H   15            1S( 0.98)
      H   16            1S( 1.00)
      H   17            1S( 0.97)
      H   18            1S( 0.97)
      H   19            1S( 0.97)
      H   20            1S( 0.97)
      H   21            1S( 0.97)
      H   22            1S( 0.97)
      H   23            1S( 0.97)
      H   24            1S( 0.81)
      H   25            1S( 0.98)
      H   26            1S( 0.97)
      H   27            1S( 0.96)
      H   28            1S( 0.96)
      H   29            1S( 0.96)
      H   30            1S( 0.96)
      H   31            1S( 0.97)


 NATURAL BOND ORBITAL ANALYSIS:

                       Occupancies       Lewis Structure    Low   High
           Occ.    -------------------  -----------------   occ   occ
  Cycle   Thresh.   Lewis   Non-Lewis     CR  BD  3C  LP    (L)   (NL)   Dev
 =============================================================================
   1(1)    1.90    87.64551   0.35449     11  31   0   2     0      0    0.02
 -----------------------------------------------------------------------------

 Structure accepted: No low occupancy Lewis orbitals

 --------------------------------------------------------
   Core                     21.99954 ( 99.998% of  22)
   Valence Lewis            65.64596 ( 99.464% of  66)
  ==================       ============================
   Total Lewis              87.64551 ( 99.597% of  88)
  -----------------------------------------------------
   Valence non-Lewis         0.35449 (  0.403% of  88)
   Rydberg non-Lewis         0.00000 (  0.000% of  88)
  ==================       ============================
   Total non-Lewis           0.35449 (  0.403% of  88)
 --------------------------------------------------------


       (Occupancy)   Bond orbital/ Coefficients/ Hybrids
 ---------------------------------------------------------------------------------
     1. (1.99027) BD ( 1) C   1 - C   2  
                ( 50.94%)   0.7137* C   1 s( 25.73%)p 2.89( 74.27%)
                                            0.0001  0.5073  0.4758  0.0015 -0.7186
                ( 49.06%)   0.7004* C   2 s( 24.87%)p 3.02( 75.13%)
                                            0.0000  0.4987 -0.4534  0.0032  0.7387
     2. (1.99522) BD ( 1) C   1 - H  12  
                ( 51.71%)   0.7191* C   1 s( 24.80%)p 3.03( 75.20%)
                                            0.0000  0.4980  0.5176  0.0425  0.6944
                ( 48.29%)   0.6949* H  12 s(100.00%)
                                            1.0000
     3. (1.99494) BD ( 1) C   1 - H  13  
                ( 51.78%)   0.7196* C   1 s( 24.70%)p 3.05( 75.30%)
                                            0.0000  0.4970 -0.5333  0.6846 -0.0009
                ( 48.22%)   0.6944* H  13 s(100.00%)
                                            1.0000
     4. (1.99512) BD ( 1) C   1 - H  14  
                ( 51.86%)   0.7202* C   1 s( 24.77%)p 3.04( 75.23%)
                                            0.0000  0.4977 -0.4704 -0.7277  0.0383
                ( 48.14%)   0.6938* H  14 s(100.00%)
                                            1.0000
     5. (1.98501) BD ( 1) C   2 - C   6  
                ( 49.78%)   0.7055* C   2 s( 25.36%)p 2.94( 74.64%)
                                            0.0000  0.5035  0.5041 -0.7011 -0.0276
                ( 50.22%)   0.7087* C   6 s( 25.30%)p 2.95( 74.70%)
                                            0.0001  0.5030 -0.4691  0.7252  0.0326
     6. (1.98421) BD ( 1) C   2 - C   7  
                ( 49.37%)   0.7026* C   2 s( 25.27%)p 2.96( 74.73%)
                                            0.0000  0.5027  0.4870  0.7129 -0.0435
                ( 50.63%)   0.7115* C   7 s( 25.68%)p 2.89( 74.32%)
                                            0.0001  0.5068 -0.4576 -0.7257  0.0847
     7. (1.98636) BD ( 1) C   2 - H  15  
                ( 51.14%)   0.7151* C   2 s( 24.50%)p 3.08( 75.50%)
                                            0.0000  0.4950 -0.5506 -0.0139 -0.6720
                ( 48.86%)   0.6990* H  15 s(100.00%)
                                            1.0000
     8. (1.98218) BD ( 1) C   3 - C   5  
                ( 50.66%)   0.7117* C   3 s( 26.63%)p 2.76( 73.37%)
                                            0.0000  0.5160  0.4130 -0.5698 -0.4884
                ( 49.34%)   0.7025* C   5 s( 25.51%)p 2.92( 74.49%)
                                            0.0001  0.5051 -0.4042  0.5604  0.5172
     9. (1.98785) BD ( 1) C   3 - C   7  
                ( 49.27%)   0.7019* C   3 s( 25.45%)p 2.93( 74.55%)
                                            0.0000  0.5045 -0.8141  0.0986 -0.2703
                ( 50.73%)   0.7122* C   7 s( 25.17%)p 2.97( 74.83%)
                                            0.0000  0.5017  0.8103 -0.1286  0.2744
    10. (1.98819) BD ( 1) C   3 - O   8  
                ( 41.08%)   0.6409* C   3 s( 22.28%)p 3.49( 77.72%)
                                           -0.0001  0.4721  0.4082  0.7787 -0.0645
                ( 58.92%)   0.7676* O   8 s( 16.42%)p 5.09( 83.58%)
                                            0.0000  0.4052 -0.4672 -0.7785  0.1072
    11. (1.98839) BD ( 1) C   3 - H  16  
                ( 50.51%)   0.7107* C   3 s( 25.64%)p 2.90( 74.36%)
                                            0.0000  0.5063  0.0096 -0.2435  0.8272
                ( 49.49%)   0.7035* H  16 s(100.00%)
                                            1.0000
    12. (1.98318) BD ( 1) C   4 - C   5  
                ( 50.40%)   0.7099* C   4 s( 25.39%)p 2.94( 74.61%)
                                            0.0001  0.5039  0.5232  0.6258  0.2841
                ( 49.60%)   0.7043* C   5 s( 25.35%)p 2.94( 74.65%)
                                            0.0000  0.5035 -0.5350 -0.6447 -0.2112
    13. (1.99044) BD ( 1) C   4 - C   6  
                ( 49.95%)   0.7068* C   4 s( 25.26%)p 2.96( 74.74%)
                                            0.0000  0.5026 -0.6672 -0.0929  0.5418
                ( 50.05%)   0.7074* C   6 s( 25.23%)p 2.96( 74.77%)
                                            0.0000  0.5023  0.6765  0.1129 -0.5265
    14. (1.98961) BD ( 1) C   4 - H  17  
                ( 51.59%)   0.7182* C   4 s( 25.21%)p 2.97( 74.79%)
                                            0.0000  0.5021  0.4368 -0.7443 -0.0556
                ( 48.41%)   0.6958* H  17 s(100.00%)
                                            1.0000
    15. (1.99116) BD ( 1) C   4 - H  18  
                ( 51.37%)   0.7167* C   4 s( 24.13%)p 3.14( 75.87%)
                                            0.0000  0.4913 -0.3005  0.2140 -0.7890
                ( 48.63%)   0.6973* H  18 s(100.00%)
                                            1.0000
    16. (1.98015) BD ( 1) C   5 - C   9  
                ( 50.14%)   0.7081* C   5 s( 25.17%)p 2.97( 74.83%)
                                            0.0001  0.5017  0.6977 -0.3183  0.4003
                ( 49.86%)   0.7061* C   9 s( 25.42%)p 2.93( 74.58%)
                                            0.0001  0.5042 -0.7405  0.3271 -0.3008
    17. (1.98365) BD ( 1) C   5 - H  19  
                ( 51.38%)   0.7168* C   5 s( 23.97%)p 3.17( 76.03%)
                                            0.0000  0.4896  0.2522  0.4110 -0.7264
                ( 48.62%)   0.6973* H  19 s(100.00%)
                                            1.0000
    18. (1.99053) BD ( 1) C   6 - H  20  
                ( 51.47%)   0.7174* C   6 s( 24.68%)p 3.05( 75.32%)
                                            0.0000  0.4968  0.2837 -0.1968  0.7962
                ( 48.53%)   0.6966* H  20 s(100.00%)
                                            1.0000
    19. (1.99013) BD ( 1) C   6 - H  21  
                ( 51.49%)   0.7176* C   6 s( 24.79%)p 3.03( 75.21%)
                                            0.0000  0.4979 -0.4917 -0.6501 -0.2961
                ( 48.51%)   0.6965* H  21 s(100.00%)
                                            1.0000
    20. (1.98880) BD ( 1) C   7 - H  22  
                ( 51.31%)   0.7163* C   7 s( 25.07%)p 2.99( 74.93%)
                                            0.0000  0.5007 -0.3657  0.6342  0.4618
                ( 48.69%)   0.6978* H  22 s(100.00%)
                                            1.0000
    21. (1.99062) BD ( 1) C   7 - H  23  
                ( 51.67%)   0.7188* C   7 s( 24.08%)p 3.15( 75.92%)
                                            0.0000  0.4907  0.0174  0.2337 -0.8392
                ( 48.33%)   0.6952* H  23 s(100.00%)
                                            1.0000
    22. (1.98927) BD ( 1) O   8 - H  24  
                ( 59.40%)   0.7707* O   8 s( 16.74%)p 4.97( 83.26%)
                                            0.0000 -0.4091  0.4570 -0.5634 -0.5534
                ( 40.60%)   0.6372* H  24 s(100.00%)
                                           -1.0000
    23. (1.99041) BD ( 1) C   9 - C  10  
                ( 48.80%)   0.6985* C   9 s( 25.17%)p 2.97( 74.83%)
                                            0.0000  0.5017 -0.1516 -0.4535  0.7209
                ( 51.20%)   0.7156* C  10 s( 25.91%)p 2.86( 74.09%)
                                            0.0001  0.5090  0.1063  0.4768 -0.7087
    24. (1.98946) BD ( 1) C   9 - C  11  
                ( 49.30%)   0.7022* C   9 s( 25.20%)p 2.97( 74.80%)
                                            0.0000  0.5020  0.5555  0.6406  0.1704
                ( 50.70%)   0.7120* C  11 s( 25.69%)p 2.89( 74.31%)
                                            0.0001  0.5069 -0.5920 -0.6066 -0.1572
    25. (1.98366) BD ( 1) C   9 - H  25  
                ( 50.90%)   0.7134* C   9 s( 24.21%)p 3.13( 75.79%)
                                            0.0000  0.4921  0.3466 -0.5263 -0.6006
                ( 49.10%)   0.7007* H  25 s(100.00%)
                                            1.0000
    26. (1.99466) BD ( 1) C  10 - H  26  
                ( 51.75%)   0.7194* C  10 s( 24.87%)p 3.02( 75.13%)
                                            0.0000  0.4987 -0.3565  0.4799  0.6276
                ( 48.25%)   0.6946* H  26 s(100.00%)
                                            1.0000
    27. (1.99458) BD ( 1) C  10 - H  27  
                ( 51.80%)   0.7197* C  10 s( 24.72%)p 3.04( 75.28%)
                                            0.0000  0.4972 -0.5180 -0.6739 -0.1741
                ( 48.20%)   0.6943* H  27 s(100.00%)
                                            1.0000
    28. (1.99417) BD ( 1) C  10 - H  28  
                ( 51.87%)   0.7202* C  10 s( 24.49%)p 3.08( 75.51%)
                                            0.0000  0.4949  0.7703 -0.2969  0.2713
                ( 48.13%)   0.6938* H  28 s(100.00%)
                                            1.0000
    29. (1.99565) BD ( 1) C  11 - H  29  
                ( 52.09%)   0.7217* C  11 s( 24.95%)p 3.01( 75.05%)
                                            0.0000  0.4995 -0.2556  0.4950  0.6634
                ( 47.91%)   0.6922* H  29 s(100.00%)
                                            1.0000
    30. (1.99503) BD ( 1) C  11 - H  30  
                ( 52.04%)   0.7214* C  11 s( 24.89%)p 3.02( 75.11%)
                                            0.0000  0.4989  0.1070  0.4947 -0.7035
                ( 47.96%)   0.6925* H  30 s(100.00%)
                                            1.0000
    31. (1.99453) BD ( 1) C  11 - H  31  
                ( 51.60%)   0.7184* C  11 s( 24.47%)p 3.09( 75.53%)
                                            0.0000  0.4947  0.7568 -0.3772  0.2006
                ( 48.40%)   0.6957* H  31 s(100.00%)
                                            1.0000
    32. (1.99997) CR ( 1) C   1           s(100.00%)
                                            1.0000  0.0000  0.0000  0.0000  0.0001
    33. (1.99997) CR ( 1) C   2           s(100.00%)
                                            1.0000  0.0000 -0.0001  0.0000  0.0000
    34. (1.99989) CR ( 1) C   3           s(100.00%)
                                            1.0000  0.0000  0.0000  0.0001  0.0000
    35. (1.99996) CR ( 1) C   4           s(100.00%)
                                            1.0000  0.0000  0.0000  0.0000 -0.0001
    36. (1.99995) CR ( 1) C   5           s(100.00%)
                                            1.0000 -0.0001  0.0000  0.0000 -0.0001
    37. (1.99996) CR ( 1) C   6           s(100.00%)
                                            1.0000  0.0000  0.0000 -0.0001  0.0000
    38. (1.99996) CR ( 1) C   7           s(100.00%)
                                            1.0000  0.0000  0.0000  0.0001  0.0000
    39. (1.99999) CR ( 1) O   8           s(100.00%)
                                            1.0000  0.0000  0.0000  0.0000  0.0000
    40. (1.99996) CR ( 1) C   9           s(100.00%)
                                            1.0000  0.0000  0.0001  0.0000  0.0000
    41. (1.99997) CR ( 1) C  10           s(100.00%)
                                            1.0000  0.0000  0.0000 -0.0001  0.0001
    42. (1.99997) CR ( 1) C  11           s(100.00%)
                                            1.0000  0.0000  0.0001  0.0000  0.0000
    43. (1.99311) LP ( 1) O   8           s( 66.69%)p 0.50( 33.31%)
                                            0.0000  0.8167  0.4309  0.1160 -0.3660
    44. (1.97543) LP ( 2) O   8           s(  0.15%)p99.99( 99.85%)
                                            0.0000  0.0392  0.6222 -0.2511  0.7405
    45. (0.00963) BD*( 1) C   1 - C   2  
                ( 49.06%)   0.7004* C   1 s( 25.73%)p 2.89( 74.27%)
                                           -0.0001 -0.5073 -0.4758 -0.0015  0.7186
                ( 50.94%)  -0.7137* C   2 s( 24.87%)p 3.02( 75.13%)
                                            0.0000 -0.4987  0.4534 -0.0032 -0.7387
    46. (0.00590) BD*( 1) C   1 - H  12  
                ( 48.29%)   0.6949* C   1 s( 24.80%)p 3.03( 75.20%)
                                            0.0000 -0.4980 -0.5176 -0.0425 -0.6944
                ( 51.71%)  -0.7191* H  12 s(100.00%)
                                           -1.0000
    47. (0.00513) BD*( 1) C   1 - H  13  
                ( 48.22%)   0.6944* C   1 s( 24.70%)p 3.05( 75.30%)
                                            0.0000 -0.4970  0.5333 -0.6846  0.0009
                ( 51.78%)  -0.7196* H  13 s(100.00%)
                                           -1.0000
    48. (0.00514) BD*( 1) C   1 - H  14  
                ( 48.14%)   0.6938* C   1 s( 24.77%)p 3.04( 75.23%)
                                            0.0000 -0.4977  0.4704  0.7277 -0.0383
                ( 51.86%)  -0.7202* H  14 s(100.00%)
                                           -1.0000
    49. (0.01604) BD*( 1) C   2 - C   6  
                ( 50.22%)   0.7087* C   2 s( 25.36%)p 2.94( 74.64%)
                                            0.0000  0.5035  0.5041 -0.7011 -0.0276
                ( 49.78%)  -0.7055* C   6 s( 25.30%)p 2.95( 74.70%)
                                            0.0001  0.5030 -0.4691  0.7252  0.0326
    50. (0.01647) BD*( 1) C   2 - C   7  
                ( 50.63%)   0.7115* C   2 s( 25.27%)p 2.96( 74.73%)
                                            0.0000  0.5027  0.4870  0.7129 -0.0435
                ( 49.37%)  -0.7026* C   7 s( 25.68%)p 2.89( 74.32%)
                                            0.0001  0.5068 -0.4576 -0.7257  0.0847
    51. (0.01013) BD*( 1) C   2 - H  15  
                ( 48.86%)   0.6990* C   2 s( 24.50%)p 3.08( 75.50%)
                                            0.0000 -0.4950  0.5506  0.0139  0.6720
                ( 51.14%)  -0.7151* H  15 s(100.00%)
                                           -1.0000
    52. (0.02718) BD*( 1) C   3 - C   5  
                ( 49.34%)   0.7025* C   3 s( 26.63%)p 2.76( 73.37%)
                                            0.0000 -0.5160 -0.4130  0.5698  0.4884
                ( 50.66%)  -0.7117* C   5 s( 25.51%)p 2.92( 74.49%)
                                           -0.0001 -0.5051  0.4042 -0.5604 -0.5172
    53. (0.02620) BD*( 1) C   3 - C   7  
                ( 50.73%)   0.7122* C   3 s( 25.45%)p 2.93( 74.55%)
                                            0.0000  0.5045 -0.8141  0.0986 -0.2703
                ( 49.27%)  -0.7019* C   7 s( 25.17%)p 2.97( 74.83%)
                                            0.0000  0.5017  0.8103 -0.1286  0.2744
    54. (0.02090) BD*( 1) C   3 - O   8  
                ( 58.92%)   0.7676* C   3 s( 22.28%)p 3.49( 77.72%)
                                           -0.0001  0.4721  0.4082  0.7787 -0.0645
                ( 41.08%)  -0.6409* O   8 s( 16.42%)p 5.09( 83.58%)
                                            0.0000  0.4052 -0.4672 -0.7785  0.1072
    55. (0.02443) BD*( 1) C   3 - H  16  
                ( 49.49%)   0.7035* C   3 s( 25.64%)p 2.90( 74.36%)
                                            0.0000 -0.5063 -0.0096  0.2435 -0.8272
                ( 50.51%)  -0.7107* H  16 s(100.00%)
                                           -1.0000
    56. (0.01621) BD*( 1) C   4 - C   5  
                ( 49.60%)   0.7043* C   4 s( 25.39%)p 2.94( 74.61%)
                                           -0.0001 -0.5039 -0.5232 -0.6258 -0.2841
                ( 50.40%)  -0.7099* C   5 s( 25.35%)p 2.94( 74.65%)
                                            0.0000 -0.5035  0.5350  0.6447  0.2112
    57. (0.01094) BD*( 1) C   4 - C   6  
                ( 50.05%)   0.7074* C   4 s( 25.26%)p 2.96( 74.74%)
                                            0.0000  0.5026 -0.6672 -0.0929  0.5418
                ( 49.95%)  -0.7068* C   6 s( 25.23%)p 2.96( 74.77%)
                                            0.0000  0.5023  0.6765  0.1129 -0.5265
    58. (0.00914) BD*( 1) C   4 - H  17  
                ( 48.41%)   0.6958* C   4 s( 25.21%)p 2.97( 74.79%)
                                            0.0000 -0.5021 -0.4368  0.7443  0.0556
                ( 51.59%)  -0.7182* H  17 s(100.00%)
                                           -1.0000
    59. (0.00796) BD*( 1) C   4 - H  18  
                ( 48.63%)   0.6973* C   4 s( 24.13%)p 3.14( 75.87%)
                                            0.0000 -0.4913  0.3005 -0.2140  0.7890
                ( 51.37%)  -0.7167* H  18 s(100.00%)
                                           -1.0000
    60. (0.02227) BD*( 1) C   5 - C   9  
                ( 49.86%)   0.7061* C   5 s( 25.17%)p 2.97( 74.83%)
                                           -0.0001 -0.5017 -0.6977  0.3183 -0.4003
                ( 50.14%)  -0.7081* C   9 s( 25.42%)p 2.93( 74.58%)
                                           -0.0001 -0.5042  0.7405 -0.3271  0.3008
    61. (0.01002) BD*( 1) C   5 - H  19  
                ( 48.62%)   0.6973* C   5 s( 23.97%)p 3.17( 76.03%)
                                            0.0000 -0.4896 -0.2522 -0.4110  0.7264
                ( 51.38%)  -0.7168* H  19 s(100.00%)
                                           -1.0000
    62. (0.01089) BD*( 1) C   6 - H  20  
                ( 48.53%)   0.6966* C   6 s( 24.68%)p 3.05( 75.32%)
                                            0.0000 -0.4968 -0.2837  0.1968 -0.7962
                ( 51.47%)  -0.7174* H  20 s(100.00%)
                                           -1.0000
    63. (0.00762) BD*( 1) C   6 - H  21  
                ( 48.51%)   0.6965* C   6 s( 24.79%)p 3.03( 75.21%)
                                            0.0000 -0.4979  0.4917  0.6501  0.2961
                ( 51.49%)  -0.7176* H  21 s(100.00%)
                                           -1.0000
    64. (0.00991) BD*( 1) C   7 - H  22  
                ( 48.69%)   0.6978* C   7 s( 25.07%)p 2.99( 74.93%)
                                            0.0000 -0.5007  0.3657 -0.6342 -0.4618
                ( 51.31%)  -0.7163* H  22 s(100.00%)
                                           -1.0000
    65. (0.00837) BD*( 1) C   7 - H  23  
                ( 48.33%)   0.6952* C   7 s( 24.08%)p 3.15( 75.92%)
                                            0.0000 -0.4907 -0.0174 -0.2337  0.8392
                ( 51.67%)  -0.7188* H  23 s(100.00%)
                                           -1.0000
    66. (0.00747) BD*( 1) O   8 - H  24  
                ( 40.60%)   0.6372* O   8 s( 16.74%)p 4.97( 83.26%)
                                            0.0000  0.4091 -0.4570  0.5634  0.5534
                ( 59.40%)  -0.7707* H  24 s(100.00%)
                                            1.0000
    67. (0.01126) BD*( 1) C   9 - C  10  
                ( 51.20%)   0.7156* C   9 s( 25.17%)p 2.97( 74.83%)
                                            0.0000  0.5017 -0.1516 -0.4535  0.7209
                ( 48.80%)  -0.6985* C  10 s( 25.91%)p 2.86( 74.09%)
                                            0.0001  0.5090  0.1063  0.4768 -0.7087
    68. (0.01035) BD*( 1) C   9 - C  11  
                ( 50.70%)   0.7120* C   9 s( 25.20%)p 2.97( 74.80%)
                                            0.0000  0.5020  0.5555  0.6406  0.1704
                ( 49.30%)  -0.7022* C  11 s( 25.69%)p 2.89( 74.31%)
                                            0.0001  0.5069 -0.5920 -0.6066 -0.1572
    69. (0.01050) BD*( 1) C   9 - H  25  
                ( 49.10%)   0.7007* C   9 s( 24.21%)p 3.13( 75.79%)
                                            0.0000 -0.4921 -0.3466  0.5263  0.6006
                ( 50.90%)  -0.7134* H  25 s(100.00%)
                                           -1.0000
    70. (0.00679) BD*( 1) C  10 - H  26  
                ( 48.25%)   0.6946* C  10 s( 24.87%)p 3.02( 75.13%)
                                            0.0000 -0.4987  0.3565 -0.4799 -0.6276
                ( 51.75%)  -0.7194* H  26 s(100.00%)
                                           -1.0000
    71. (0.00614) BD*( 1) C  10 - H  27  
                ( 48.20%)   0.6943* C  10 s( 24.72%)p 3.04( 75.28%)
                                            0.0000 -0.4972  0.5180  0.6739  0.1741
                ( 51.80%)  -0.7197* H  27 s(100.00%)
                                           -1.0000
    72. (0.00499) BD*( 1) C  10 - H  28  
                ( 48.13%)   0.6938* C  10 s( 24.49%)p 3.08( 75.51%)
                                            0.0000 -0.4949 -0.7703  0.2969 -0.2713
[...]
   11       0.1832       -0.3479       0.5312        -1.0911       1.2744
   17      -0.1611       -0.5627       0.4017        -1.1527       0.9916
   20      -0.3863       -0.8737       0.4874        -1.3637       0.9774
   22      18.8506        9.2349       9.6158         4.4467      14.4039
   39     271.1756       -0.0062     271.1818        -0.0038     271.1794
   43      33.1829       -0.7738      33.9567        -4.2758      37.4587
   44       5.0108      -33.8864      38.8971       -34.9586      39.9694
 Sum      352.5727      -20.2618     372.8345       -25.0773     377.6501

 Contributions to Isotropic shielding for atom    9 (   211.2599 ppm):
                         Standard Origin              Atomic Origin
 NLMO      Total    Paramagnetic  Diamagnetic   Paramagnetic  Diamagnetic
   10       0.0926       -0.2247       0.3173        -1.0429       1.1355
   14      -0.4813       -0.9933       0.5120        -1.4678       0.9866
   16       5.0252       -9.4074      14.4325        -2.7017       7.7268
   17       0.4502        0.0746       0.3757        -0.6010       1.0512
   23      -0.0806       -6.8712       6.7906        -7.4904       7.4098
   24      -2.4363       -6.0677       3.6314       -10.0791       7.6428
   25       4.3267       -0.7780       5.1048        -6.4991      10.8258
   26       0.8575       -0.3156       1.1731        -0.1736       1.0311
   27       0.5714       -0.4730       1.0443        -0.4370       1.0084
   28       0.5883       -0.1205       0.7087        -0.4400       1.0283
   29       0.9752       -0.4145       1.3897        -0.0729       1.0481
   30       0.6708       -0.5916       1.2623        -0.3788       1.0496
   31       0.6151       -0.3190       0.9341        -0.4104       1.0255
   40     199.9270       -0.0027     199.9297         0.0031     199.9239
 Sum      211.1018      -26.5045     237.6063       -31.7917     242.8935

 Contributions to Isotropic shielding for atom   10 (   224.2923 ppm):
                         Standard Origin              Atomic Origin
 NLMO      Total    Paramagnetic  Diamagnetic   Paramagnetic  Diamagnetic
   23       3.6704       -8.8202      12.4906        -4.4118       8.0822
   24      -0.3288       -0.1047      -0.2241        -1.0186       0.6898
   25       0.3185       -0.0744       0.3928        -0.6836       1.0021
   26       7.1928       -5.6359      12.8287        -3.9075      11.1003
   27       6.6831       -4.3392      11.0222        -4.4055      11.0886
   28       6.0714        3.1816       2.8898        -5.0313      11.1027
   41     200.0742       -0.0019     200.0760         0.0013     200.0728
 Sum      223.6815      -15.7946     239.4761       -19.4570     243.1386

 Contributions to Isotropic shielding for atom   11 (   220.9329 ppm):
                         Standard Origin              Atomic Origin
 NLMO      Total    Paramagnetic  Diamagnetic   Paramagnetic  Diamagnetic
   10       0.0894       -0.2336       0.3230        -1.1378       1.2272
   23      -0.4724       -0.0551      -0.4173        -1.1616       0.6892
   24       4.4081      -10.7123      15.1204        -3.4247       7.8328
   25       0.2626        0.1654       0.0971        -0.7668       1.0294
   28      -0.1090       -0.4597       0.3507        -1.0390       0.9300
   29       6.3764       -5.7458      12.1222        -4.8603      11.2367
   30       5.5304       -3.3665       8.8968        -5.6717      11.2021
   31       4.7955        2.4458       2.3497        -6.2133      11.0088
   42     200.0742       -0.0035     200.0778         0.0022     200.0720
 Sum      220.9551      -17.9652     238.9204       -24.2731     245.2282

 Contributions to Isotropic shielding for atom   12 (    32.7462 ppm):
                         Standard Origin              Atomic Origin
 NLMO      Total    Paramagnetic  Diamagnetic   Paramagnetic  Diamagnetic
    1       1.7115       -1.4198       3.1313         0.8245       0.8871
    2      26.3595        0.3907      25.9688         0.3883      25.9712
    3       1.9396        1.2572       0.6824         0.1220       1.8175
    4       1.9652        1.2713       0.6939         0.1435       1.8216
 Sum       31.9758        1.4995      30.4763         1.4783      30.4974

 Contributions to Isotropic shielding for atom   13 (    32.5802 ppm):
                         Standard Origin              Atomic Origin
 NLMO      Total    Paramagnetic  Diamagnetic   Paramagnetic  Diamagnetic
    1       1.3302       -0.0143       1.3445         0.3552       0.9750
    2       2.0110        0.8697       1.1414         0.1717       1.8393
    3      26.4088        0.1381      26.2707         0.4645      25.9442
    4       1.9052        2.4400      -0.5348         0.0574       1.8478
    6      -0.1202        0.4469      -0.5671        -1.0101       0.8899
   20      -0.2179       -0.1742      -0.0437        -1.0160       0.7981
 Sum       31.3171        3.7062      27.6109        -0.9772      32.2943

 Contributions to Isotropic shielding for atom   14 (    32.4833 ppm):
                         Standard Origin              Atomic Origin
 NLMO      Total    Paramagnetic  Diamagnetic   Paramagnetic  Diamagnetic
    1       1.3247       -0.0190       1.3437         0.3322       0.9926
    2       2.0333        0.8711       1.1622         0.2023       1.8311
    3       1.8325        2.3830      -0.5505         0.0006       1.8319
    4      26.3445        0.1296      26.2149         0.4475      25.8970
    5      -0.1094        0.4924      -0.6018        -1.0891       0.9797
 Sum       31.4257        3.8572      27.5685        -0.1066      31.5323

 Contributions to Isotropic shielding for atom   15 (    32.3949 ppm):
                         Standard Origin              Atomic Origin
 NLMO      Total    Paramagnetic  Diamagnetic   Paramagnetic  Diamagnetic
    1       0.7910        2.4341      -1.6431        -0.1995       0.9905
    5       1.3227        0.9947       0.3280         0.3696       0.9531
    6       1.2692        0.9053       0.3639         0.2676       1.0016
    7      26.5027       -0.2908      26.7935         0.4728      26.0298
   19       0.0267       -0.0416       0.0683        -1.0271       1.0538
   21      -0.1040       -0.0712      -0.0328        -1.2654       1.1613
 Sum       29.8082        3.9305      25.8777        -1.3820      31.1902

 Contributions to Isotropic shielding for atom   16 (    32.2199 ppm):
                         Standard Origin              Atomic Origin
 NLMO      Total    Paramagnetic  Diamagnetic   Paramagnetic  Diamagnetic
    2      -0.1995       -1.0064       0.8070        -0.7636       0.5642
    8       1.0679       -0.2459       1.3139         0.0325       1.0354
   10       0.7327        0.6692       0.0635        -0.8220       1.5547
   11      26.6906        0.4248      26.2658         0.6384      26.0522
   22       0.2954       -0.9186       1.2140        -0.6753       0.9706
   26      -0.3800       -1.2246       0.8445        -0.9025       0.5225
 Sum       28.2070       -2.3016      30.5086        -2.4926      30.6996

 Contributions to Isotropic shielding for atom   17 (    32.4591 ppm):
                         Standard Origin              Atomic Origin
 NLMO      Total    Paramagnetic  Diamagnetic   Paramagnetic  Diamagnetic
   12       1.3759        0.3999       0.9760         0.4894       0.8866
   13       1.0661        1.0279       0.0382         0.0853       0.9808
   14      26.3848        0.0659      26.3189         0.4980      25.8868
   15       2.0486        1.7398       0.3088         0.2713       1.7773
   16      -0.1643       -0.0186      -0.1458        -1.3291       1.1648
 Sum       30.7111        3.2150      27.4961         0.0148      30.6963

 Contributions to Isotropic shielding for atom   18 (    32.2409 ppm):
                         Standard Origin              Atomic Origin
 NLMO      Total    Paramagnetic  Diamagnetic   Paramagnetic  Diamagnetic
   12       1.3698        0.3337       1.0361         0.3383       1.0314
   13       1.0711        0.9898       0.0812         0.0761       0.9949
   14       1.9451        1.6455       0.2996         0.1154       1.8296
   15      26.4566       -0.0168      26.4734         0.4329      26.0237
   17      -0.1445       -0.2746       0.1301        -1.3017       1.1571
 Sum       30.6980        2.6776      28.0204        -0.3388      31.0368

 Contributions to Isotropic shielding for atom   19 (    31.9202 ppm):
                         Standard Origin              Atomic Origin
 NLMO      Total    Paramagnetic  Diamagnetic   Paramagnetic  Diamagnetic
    8       1.2368        0.8743       0.3625         0.2573       0.9795
   10       0.0984       -0.4518       0.5501        -1.6229       1.7212
   12       1.0797        1.0457       0.0340        -0.0346       1.1143
   15      -0.1004       -0.7438       0.6435        -1.2740       1.1737
   16       1.0425        1.4337      -0.3912        -0.1677       1.2103
   17      26.2533       -0.1017      26.3551         0.4426      25.8107
   30      -0.1394       -1.3842       1.2448        -1.0183       0.8788
 Sum       29.4709        0.6722      28.7987        -3.4177      32.8885

 Contributions to Isotropic shielding for atom   20 (    33.0142 ppm):
                         Standard Origin              Atomic Origin
 NLMO      Total    Paramagnetic  Diamagnetic   Paramagnetic  Diamagnetic
    1      -0.0948       -0.6443       0.5495        -1.1717       1.0769
    2      -0.0366       -1.0453       1.0087        -0.9830       0.9464
    5       1.3458        0.4375       0.9083         0.5458       0.8000
   13       1.3764       -0.1642       1.5406         0.4547       0.9217
   18      26.4028        0.2499      26.1529         0.4062      25.9966
   19       1.9726        1.6836       0.2890         0.1873       1.7853
   27      -0.3076       -1.0513       0.7437        -0.8610       0.5534
 Sum       30.6586       -0.5341      31.1927        -1.4217      32.0803

 Contributions to Isotropic shielding for atom   21 (    32.4197 ppm):
                         Standard Origin              Atomic Origin
 NLMO      Total    Paramagnetic  Diamagnetic   Paramagnetic  Diamagnetic
    4      -0.0755       -1.0554       0.9799        -0.9291       0.8536
    5       0.9726        1.4282      -0.4556         0.0162       0.9564
    7       0.0648       -0.2355       0.3003        -0.9666       1.0315
   13       1.1214        1.0236       0.0979         0.1432       0.9783
   18       2.1050        1.2325       0.8725         0.3419       1.7631
   19      26.4333       -0.0712      26.5045         0.4645      25.9687
 Sum       30.6216        2.3222      28.2995        -0.9299      31.5515

 Contributions to Isotropic shielding for atom   22 (    32.9470 ppm):
                         Standard Origin              Atomic Origin
 NLMO      Total    Paramagnetic  Diamagnetic   Paramagnetic  Diamagnetic
    1      -0.1632       -0.3729       0.2097        -1.2842       1.1210
    3      -0.0521       -1.3039       1.2518        -0.9880       0.9359
    6       1.0558        1.1852      -0.1293         0.1931       0.8627
    9       1.3245        0.4804       0.8441         0.4647       0.8597
   10      -0.2117        0.3370      -0.5487        -1.4087       1.1970
   20      26.5038        0.0526      26.4513         0.4800      26.0239
   21       2.0631        1.7081       0.3550         0.2148       1.8483
 Sum       30.5202        2.0865      28.4337        -2.3283      32.8485

 Contributions to Isotropic shielding for atom   23 (    32.0528 ppm):
                         Standard Origin              Atomic Origin
 NLMO      Total    Paramagnetic  Diamagnetic   Paramagnetic  Diamagnetic
    6       1.0612        0.7395       0.3216         0.0657       0.9955
    7      -0.0388       -0.6965       0.6577        -1.1586       1.1198
    9       1.3409        0.1248       1.2162         0.4270       0.9139
   10      -0.0627        0.0576      -0.1203        -1.3322       1.2695
   20       1.8874        1.6432       0.2442         0.0202       1.8672
   21      26.2872        0.0551      26.2321         0.4188      25.8684
 Sum       30.4752        1.9237      28.5514        -1.5592      32.0344

 Contributions to Isotropic shielding for atom   24 (    35.0898 ppm):
                         Standard Origin              Atomic Origin
 NLMO      Total    Paramagnetic  Diamagnetic   Paramagnetic  Diamagnetic
    9      -0.1963        0.4280      -0.6243        -1.2187       1.0224
   10       1.4895        1.9448      -0.4553         0.7867       0.7028
   11       0.1749        0.2214      -0.0465        -0.8634       1.0383
   20      -0.0825       -0.6277       0.5451        -1.0201       0.9375
   22      23.1175       -0.4378      23.5552        -0.0968      23.2143
   43       4.0606        1.0129       3.0477         2.1319       1.9287
   44       5.5894        2.4567       3.1327         2.4212       3.1682
 Sum       34.1530        4.9984      29.1547         2.1408      32.0123

 Contributions to Isotropic shielding for atom   25 (    32.3988 ppm):
                         Standard Origin              Atomic Origin
 NLMO      Total    Paramagnetic  Diamagnetic   Paramagnetic  Diamagnetic
   12      -0.0855        0.2902      -0.3757        -1.0520       0.9665
   16       1.5733        0.3029       1.2703         0.5346       1.0387
   23       0.9703        1.5524      -0.5821        -0.0479       1.0181
   24       0.7993        2.1210      -1.3217        -0.2511       1.0504
   25      26.6006       -0.1761      26.7767         0.4751      26.1255
   31       0.2080       -0.5499       0.7579        -0.8011       1.0091
 Sum       30.0659        3.5405      26.5254        -1.1425      31.2083

 Contributions to Isotropic shielding for atom   26 (    32.7537 ppm):
                         Standard Origin              Atomic Origin
 NLMO      Total    Paramagnetic  Diamagnetic   Paramagnetic  Diamagnetic
    8      -0.0854       -0.1032       0.0177        -1.0361       0.9507
   23       1.4983       -0.6206       2.1189         0.5489       0.9494
   26      26.3476        0.3067      26.0409         0.3626      25.9850
   27       2.1324        0.3430       1.7895         0.3238       1.8086
   28       1.9871        1.7416       0.2455         0.1427       1.8444
 Sum       31.8800        1.6674      30.2125         0.3419      31.5380

 Contributions to Isotropic shielding for atom   27 (    32.6354 ppm):
                         Standard Origin              Atomic Origin
 NLMO      Total    Paramagnetic  Diamagnetic   Paramagnetic  Diamagnetic
   12      -0.0903       -0.0515      -0.0388        -1.0232       0.9329
   23       1.4338       -0.3641       1.7979         0.3993       1.0344
   26       2.1317        0.2327       1.8990         0.3020       1.8297
   27      26.3545        0.2454      26.1091         0.3778      25.9767
   28       1.9698        1.9552       0.0146         0.0922       1.8776
 Sum       31.7994        2.0177      29.7817         0.1481      31.6514

 Contributions to Isotropic shielding for atom   28 (    32.5495 ppm):
                         Standard Origin              Atomic Origin
 NLMO      Total    Paramagnetic  Diamagnetic   Paramagnetic  Diamagnetic
   23       1.1574        1.0152       0.1422         0.1180       1.0394
   24      -0.1438        0.3930      -0.5368        -1.1439       1.0000
   26       2.0436        1.3213       0.7223         0.1811       1.8624
   27       2.0279        1.6479       0.3800         0.1615       1.8665
   28      26.3001       -0.0317      26.3318         0.3978      25.9023
 Sum       31.3852        4.3457      27.0395        -0.2855      31.6707

 Contributions to Isotropic shielding for atom   29 (    32.2303 ppm):
                         Standard Origin              Atomic Origin
 NLMO      Total    Paramagnetic  Diamagnetic   Paramagnetic  Diamagnetic
    8      -0.0903        0.0833      -0.1736        -1.0866       0.9962
   10       0.0814       -0.2233       0.3047        -1.1405       1.2218
   23      -0.1341        0.1499      -0.2841        -1.0568       0.9227
   24       1.5747       -1.0804       2.6552         0.6706       0.9042
   29      26.1926        0.3363      25.8563         0.4075      25.7850
   30       2.0323        0.7650       1.2673         0.2137       1.8187
   31       1.8891        1.8493       0.0398         0.0473       1.8419
 Sum       31.5457        1.8801      29.6656        -1.9448      33.4905

 Contributions to Isotropic shielding for atom   30 (    32.1667 ppm):
                         Standard Origin              Atomic Origin
 NLMO      Total    Paramagnetic  Diamagnetic   Paramagnetic  Diamagnetic
   10       0.1208       -0.2498       0.3705        -0.9074       1.0282
   24       1.4830       -0.5324       2.0154         0.4932       0.9899
   29       2.0710        0.6246       1.4464         0.2334       1.8376
   30      26.2269        0.2530      25.9739         0.4292      25.7978
   31       1.8731        2.2863      -0.4132         0.0422       1.8309
 Sum       31.7749        2.3818      29.3930         0.2905      31.4843

 Contributions to Isotropic shielding for atom   31 (    32.4775 ppm):
                         Standard Origin              Atomic Origin
 NLMO      Total    Paramagnetic  Diamagnetic   Paramagnetic  Diamagnetic
   23      -0.1519        0.6207      -0.7726        -1.0757       0.9238
   24       1.2352        0.4666       0.7686         0.2429       0.9923
   29       1.9863        1.4732       0.5130         0.1124       1.8738
   30       1.9525        2.0328      -0.0804         0.0873       1.8652
   31      26.4862        0.0129      26.4732         0.4461      26.0401
 Sum       31.5083        4.6063      26.9020        -0.1869      31.6952
 
 1\1\GINC-COMPUTE-9-5\SP\RHF\STO-3G\C10H20O1\YTSAI.IQUIR\03-Aug-2021\0\
 \# rhf/STO-3G nmr pop=nbo\\comment\\0,1\C,0,0.265321838,0.346320923,-3
 .2223371\C,0,-0.789828435,0.311785684,-2.11555965\C,0,-0.060363857,-1.
 108656298,-0.126896522\C,0,-1.187805302,1.164553122,0.239203123\C,0,-0
 .643363314,-0.118982538,0.909909196\C,0,-0.540885738,1.448622465,-1.11
 271991\C,0,-0.845140935,-1.065882691,-1.439170616\O,0,-0.132496837,-2.
 434105079,0.395466685\C,0,0.31247936,0.210377646,2.099898372\C,0,1.571
 684626,0.986069783,1.701741392\C,0,0.712171012,-1.033626546,2.89923873
 5\H,0,1.265939422,0.144463749,-2.825271661\H,0,0.048248707,-0.40445574
 7,-3.989529777\H,0,0.283874565,1.326444093,-3.71060557\H,0,-1.76404044
 3,0.48086138,-2.593535136\H,0,0.993741862,-0.892863586,-0.328273995\H,
 0,-1.079001248,2.033678718,0.897881807\H,0,-2.268492243,1.044505465,0.
 083307059\H,0,-1.512306134,-0.609126662,1.375384072\H,0,0.535242522,1.
 607372742,-0.97524185\H,0,-0.938498676,2.385246492,-1.522098251\H,0,-0
 .500165051,-1.85565517,-2.11828569\H,0,-1.892923002,-1.320149606,-1.22
 5697448\H,0,0.266194018,-3.030680265,-0.260774041\H,0,-0.251828635,0.8
 5261572,2.790702239\H,0,2.202778594,0.417654557,1.012519537\H,0,1.3227
 04325,1.941972621,1.232645359\H,0,2.175700023,1.213615315,2.587416883\
 H,0,1.399453786,-1.674488647,2.338182112\H,0,-0.168115016,-1.622734053
 ,3.176105179\H,0,1.219720204,-0.744753586,3.826395466\\Version=EM64L-G
 09RevC.01\State=1-A\HF=-459.6108768\RMSD=5.522e-09\Dipole=0.1315297,0.
 1836847,-0.4684566\Quadrupole=0.4882266,-0.1638279,-0.3243987,-1.38084
 34,-0.0390868,2.6842347\PG=C01 [X(C10H20O1)]\\@


 WE STILL HAVE JUDGEMENT HERE,
 THAT WE TEACH BUT BLOODY INSTRUCTIONS,
 WHICH, BEING TAUGHT,
 RETURN TO PLAGUE THE INVENTOR.
           MACBETH ACT I, SCENE VII
 Job cpu time:  0 days  0 hours  0 minutes 24.5 seconds.
 File lengths (MBytes):  RWF=      5 Int=      0 D2E=      0 Chk=      1 Scr=      1
 Normal termination of Gaussian 09 at Tue Aug  3 16:36:18 2021.
