 Entering Gaussian System, Link 0=g09
 Input=/home/ytsai.iquir/menthol/03_menthol_M0058_MMFF_NMR_rhf_STO-3G_nbo.gjc
 Output=/home/ytsai.iquir/menthol/03_menthol_M0058_MMFF_NMR_rhf_STO-3G_nbo.log
 Initial command:
 /share/apps/Gaussian09/EM64T.SSE4.2-enabled/g09/l1.exe /tmp/Gau-29993.inp -scrdir=/tmp/
 Entering Link 1 = /share/apps/Gaussian09/EM64T.SSE4.2-enabled/g09/l1.exe PID=     29994.
  
 Copyright (c) 1988,1990,1992,1993,1995,1998,2003,2009,2011,
            Gaussian, Inc.  All Rights Reserved.
  
 This is part of the Gaussian(R) 09 program.  It is based on
 the Gaussian(R) 03 system (copyright 2003, Gaussian, Inc.),
 the Gaussian(R) 98 system (copyright 1998, Gaussian, Inc.),
 the Gaussian(R) 94 system (copyright 1995, Gaussian, Inc.),
 the Gaussian 92(TM) system (copyright 1992, Gaussian, Inc.),
 the Gaussian 90(TM) system (copyright 1990, Gaussian, Inc.),
 the Gaussian 88(TM) system (copyright 1988, Gaussian, Inc.),
 the Gaussian 86(TM) system (copyright 1986, Carnegie Mellon
 University), and the Gaussian 82(TM) system (copyright 1983,
 Carnegie Mellon University). Gaussian is a federally registered
 trademark of Gaussian, Inc.
  
 This software contains proprietary and confidential information,
 including trade secrets, belonging to Gaussian, Inc.
  
 This software is provided under written license and may be
 used, copied, transmitted, or stored only in accord with that
 written license.
  
 The following legend is applicable only to US Government
 contracts under FAR:
  
                    RESTRICTED RIGHTS LEGEND
  
 Use, reproduction and disclosure by the US Government is
 subject to restrictions as set forth in subparagraphs (a)
 and (c) of the Commercial Computer Software - Restricted
 Rights clause in FAR 52.227-19.
  
 Gaussian, Inc.
 340 Quinnipiac St., Bldg. 40, Wallingford CT 06492
  
  
 ---------------------------------------------------------------
 Warning -- This program may not be used in any manner that
 competes with the business of Gaussian, Inc. or will provide
 assistance to any competitor of Gaussian, Inc.  The licensee
 of this program is prohibited from giving any competitor of
 Gaussian, Inc. access to this program.  By using this program,
 the user acknowledges that Gaussian, Inc. is engaged in the
 business of creating and licensing software in the field of
 computational chemistry and represents and warrants to the
 licensee that it is not a competitor of Gaussian, Inc. and that
 it will not use this program in any manner prohibited above.
 ---------------------------------------------------------------
  

 Cite this work as:
 Gaussian 09, Revision C.01,
 M. J. Frisch, G. W. Trucks, H. B. Schlegel, G. E. Scuseria, 
 M. A. Robb, J. R. Cheeseman, G. Scalmani, V. Barone, B. Mennucci, 
 G. A. Petersson, H. Nakatsuji, M. Caricato, X. Li, H. P. Hratchian, 
 A. F. Izmaylov, J. Bloino, G. Zheng, J. L. Sonnenberg, M. Hada, 
 M. Ehara, K. Toyota, R. Fukuda, J. Hasegawa, M. Ishida, T. Nakajima, 
 Y. Honda, O. Kitao, H. Nakai, T. Vreven, J. A. Montgomery, Jr., 
 J. E. Peralta, F. Ogliaro, M. Bearpark, J. J. Heyd, E. Brothers, 
 K. N. Kudin, V. N. Staroverov, T. Keith, R. Kobayashi, J. Normand, 
 K. Raghavachari, A. Rendell, J. C. Burant, S. S. Iyengar, J. Tomasi, 
 M. Cossi, N. Rega, J. M. Millam, M. Klene, J. E. Knox, J. B. Cross, 
 V. Bakken, C. Adamo, J. Jaramillo, R. Gomperts, R. E. Stratmann, 
 O. Yazyev, A. J. Austin, R. Cammi, C. Pomelli, J. W. Ochterski, 
 R. L. Martin, K. Morokuma, V. G. Zakrzewski, G. A. Voth, 
 P. Salvador, J. J. Dannenberg, S. Dapprich, A. D. Daniels, 
 O. Farkas, J. B. Foresman, J. V. Ortiz, J. Cioslowski, 
 and D. J. Fox, Gaussian, Inc., Wallingford CT, 2010.
 
 ******************************************
 Gaussian 09:  EM64L-G09RevC.01 23-Sep-2011
                 3-Aug-2021 
 ******************************************
 %nprocshared=4
 Will use up to    4 processors via shared memory.
 ------------------------
 # rhf/STO-3G nmr pop=nbo
 ------------------------
 1/38=1/1;
 2/12=2,17=6,18=5,40=1/2;
 3/6=3,11=1,16=1,25=1,30=1,116=1/1,2,8,3;
 4//1;
 5/5=2,38=5/2;
 8/6=1,10=90,11=11/1;
 10/13=100,45=16/2;
 6/7=2,8=2,9=2,10=2,28=1,64=1/1,7;
 99/9=1/99;
 -------
 comment
 -------
 Charge =  0 Multiplicity = 1
 Symbolic Z-Matrix:
 6                    -2.08259  -0.42703  -3.01402 
 6                    -1.47826  -0.34502  -1.614 
 6                     0.66435  -1.05548  -0.37943 
 6                    -0.41498   1.18146   0.11012 
 6                     0.10683  -0.13651   0.72388 
 6                    -0.9084    1.04529  -1.33463 
 6                    -0.40685  -1.42857  -1.41539 
 8                     1.20541  -2.25399   0.1683 
 6                     1.08277   0.07498   1.91827 
 6                     0.45152   0.93374   3.01981 
 6                     2.44065   0.66006   1.51925 
 1                    -1.33064  -0.22723  -3.78494 
 1                    -2.50222  -1.42173  -3.19759 
 1                    -2.88906   0.30438  -3.13184 
 1                    -2.28837  -0.52971  -0.89533 
 1                     1.4847   -0.54586  -0.89849 
 1                     0.34872   1.96592   0.13171 
 1                    -1.24225   1.54788   0.73158 
 1                    -0.7632   -0.65833   1.15191 
 1                    -0.07355   1.2427   -2.01996 
 1                    -1.65911   1.82003  -1.53163 
 1                     0.10435  -1.64812  -2.36225 
 1                    -0.90161  -2.36867  -1.13761 
 1                     0.50138  -2.69385   0.67481 
 1                     1.2769   -0.90963   2.36444 
 1                     0.3045    1.96881   2.69508 
 1                    -0.51918   0.52755   3.32275 
 1                     1.09391   0.95351   3.90699 
 1                     2.34502   1.65491   1.07483 
 1                     2.96069   0.01472   0.80534 
 1                     3.08858   0.75381   2.39802 
 
                          Input orientation:                          
 ---------------------------------------------------------------------
 Center     Atomic      Atomic             Coordinates (Angstroms)
 Number     Number       Type             X           Y           Z
 ---------------------------------------------------------------------
      1          6           0       -2.082593   -0.427027   -3.014019
      2          6           0       -1.478257   -0.345019   -1.614002
      3          6           0        0.664351   -1.055483   -0.379429
      4          6           0       -0.414983    1.181460    0.110115
      5          6           0        0.106831   -0.136513    0.723878
      6          6           0       -0.908396    1.045291   -1.334626
      7          6           0       -0.406848   -1.428570   -1.415392
      8          8           0        1.205412   -2.253988    0.168296
      9          6           0        1.082769    0.074976    1.918274
     10          6           0        0.451523    0.933735    3.019810
     11          6           0        2.440649    0.660064    1.519253
     12          1           0       -1.330643   -0.227229   -3.784942
     13          1           0       -2.502224   -1.421730   -3.197586
     14          1           0       -2.889058    0.304379   -3.131835
     15          1           0       -2.288369   -0.529714   -0.895325
     16          1           0        1.484697   -0.545865   -0.898488
     17          1           0        0.348715    1.965918    0.131709
     18          1           0       -1.242250    1.547882    0.731581
     19          1           0       -0.763195   -0.658334    1.151911
     20          1           0       -0.073550    1.242705   -2.019959
     21          1           0       -1.659115    1.820027   -1.531627
     22          1           0        0.104353   -1.648125   -2.362246
     23          1           0       -0.901612   -2.368671   -1.137606
     24          1           0        0.501378   -2.693854    0.674807
     25          1           0        1.276903   -0.909627    2.364438
     26          1           0        0.304497    1.968806    2.695081
     27          1           0       -0.519184    0.527546    3.322752
     28          1           0        1.093911    0.953510    3.906988
     29          1           0        2.345023    1.654914    1.074830
     30          1           0        2.960686    0.014725    0.805341
     31          1           0        3.088579    0.753810    2.398018
 ---------------------------------------------------------------------
                    Distance matrix (angstroms):
                    1          2          3          4          5
     1  C    0.000000
     2  C    1.527087   0.000000
     3  C    3.857684   2.572878   0.000000
     4  C    3.889520   2.536389   2.531508   0.000000
     5  C    4.341642   2.832254   1.540331   1.544684   0.000000
     6  C    2.523256   1.528317   2.792702   1.532735   2.581625
     7  C    2.523255   1.536700   1.536191   3.023160   2.551422
     8  O    4.927057   3.744706   1.424486   3.798864   2.449337
     9  C    5.882095   4.383175   2.594696   2.595575   1.556844
    10  C    6.684348   5.179910   3.944250   3.046067   2.556471
    11  C    6.495540   5.117157   3.115016   3.226787   2.591112
    12  H    1.095294   2.179139   4.032807   4.241971   4.733289
    13  H    1.095090   2.171533   4.254804   4.698304   4.882298
    14  H    1.095089   2.171611   4.695922   4.171398   4.902679
    15  H    2.131139   1.098585   3.043212   2.729213   2.917775
    16  H    4.149114   3.054733   1.096403   2.758571   2.167522
    17  H    4.640372   3.424290   3.080544   1.095023   2.197587
    18  H    4.316939   3.023331   3.412767   1.097659   2.158069
    19  H    4.375990   2.873979   2.130873   2.142762   1.101115
    20  H    2.795069   2.158441   2.918477   2.158135   3.076268
    21  H    2.725082   2.174148   3.872288   2.156606   3.468994
    22  H    2.588169   2.182340   2.143919   3.793262   3.436443
    23  H    2.947139   2.157462   2.179802   3.794344   3.076461
    24  H    5.042108   3.830748   1.955054   4.022021   2.588063
    25  H    6.359789   4.872132   2.815191   3.509572   2.158289
    26  H    6.635664   5.205784   4.327635   2.796357   2.890861
    27  H    6.596220   5.104187   4.196770   3.280166   2.754453
    28  H    7.739277   6.227644   4.753309   4.092061   3.506375
    29  H    6.376280   5.083996   3.505107   2.961835   2.888232
    30  H    6.341712   5.068220   2.796815   3.638647   2.859020
    31  H    7.577964   6.177355   4.106657   4.206225   3.533588
                    6          7          8          9         10
     6  C    0.000000
     7  C    2.525482   0.000000
     8  O    4.196689   2.405985   0.000000
     9  C    3.935430   3.948790   2.915739   0.000000
    10  C    4.563215   5.097872   4.342932   1.532749   0.000000
    11  C    4.416913   4.591598   3.441307   1.531464   2.506629
    12  H    2.793144   2.812719   5.115410   6.200207   7.129418
    13  H    3.478089   2.750793   5.076257   6.423732   7.275222
    14  H    2.775236   3.480036   5.848144   6.428969   7.028393
    15  H    2.139615   2.149076   4.038677   4.432444   4.997697
    16  H    2.906696   2.150419   2.033153   2.912239   4.313898
    17  H    2.139631   3.806172   4.306144   2.703019   3.068729
    18  H    2.152503   3.763862   4.556594   2.997233   2.912393
    19  H    3.017662   2.703940   2.718276   2.129000   2.738479
    20  H    1.098008   2.759039   4.318687   4.267358   5.076459
    21  H    1.096633   3.483542   5.262399   4.739720   5.094691
    22  H    3.055512   1.098209   2.825428   4.716909   5.979386
    23  H    3.419649   1.098065   2.481548   4.387207   5.479139
    24  H    4.472862   2.606675   0.972472   3.090412   4.319830
    25  H    4.720202   4.170304   2.575938   1.098268   2.123381
    26  H    4.308425   5.379978   5.002827   2.189915   1.094731
    27  H    4.702203   5.127282   4.545520   2.177988   1.095004
    28  H    5.611789   6.021156   4.927301   2.174151   1.095509
    29  H    4.094124   4.825130   4.171335   2.191093   2.808628
    30  H    4.539969   4.284279   2.938345   2.183763   3.470497
    31  H    5.476623   5.614525   4.191042   2.171231   2.715338
                   11         12         13         14         15
    11  C    0.000000
    12  H    6.568441   0.000000
    13  H    7.142439   1.773252   0.000000
    14  H    7.082719   1.771387   1.770145   0.000000
    15  H    5.441449   3.059186   2.478272   2.461405   0.000000
    16  H    2.865934   4.044662   4.684926   4.984023   3.773101
    17  H    2.829615   4.792734   5.539695   4.888211   3.773220
    18  H    3.869417   4.853640   5.083747   4.379984   2.838590
    19  H    3.483924   4.988023   4.746064   4.878175   2.556145
    20  H    4.380261   2.618426   3.792688   3.169197   3.051507
    21  H    5.240367   3.062121   3.741022   2.524008   2.514384
    22  H    5.084491   2.470268   2.746506   3.655823   3.021227
    23  H    5.234772   3.431943   2.775280   3.882278   2.315935
    24  H    3.965177   5.415710   5.063137   5.913965   3.864130
    25  H    2.128983   6.714153   6.743899   7.002718   4.845777
    26  H    2.767403   7.034696   7.355062   6.849968   5.084936
    27  H    3.468541   7.193571   7.088507   6.879520   4.694677
    28  H    2.757008   8.150976   8.309569   8.113596   6.058216
    29  H    1.093793   6.377333   7.156472   6.849495   5.488391
    30  H    1.093879   6.288462   6.923165   7.057249   5.544480
    31  H    1.095824   7.662960   8.203709   8.155575   6.434680
                   16         17         18         19         20
    16  H    0.000000
    17  H    2.942926   0.000000
    18  H    3.804883   1.750934   0.000000
    19  H    3.044635   3.027186   2.296423   0.000000
    20  H    2.623892   2.308901   3.004991   3.761691   0.000000
    21  H    3.985205   2.611389   2.317315   3.761159   1.756641
    22  H    2.294105   4.397821   4.647533   3.752549   2.916454
    23  H    3.012353   4.686485   4.353077   2.861171   3.808710
    24  H    2.838315   4.693798   4.586479   2.443382   4.805081
    25  H    3.289709   3.757043   3.879652   2.386498   5.067464
    26  H    4.542045   2.563755   2.534745   3.228498   4.785577
    27  H    4.794435   3.606233   2.877164   2.485639   5.408752
    28  H    5.049102   3.979073   3.986745   3.692876   6.047752
    29  H    3.078567   2.229674   3.605246   3.875316   3.949320
    30  H    2.322894   3.329163   4.474447   3.800054   4.323984
    31  H    3.889543   3.756623   4.707827   4.287551   5.454961
                   21         22         23         24         25
    21  H    0.000000
    22  H    3.978420   0.000000
    23  H    4.274840   1.740947   0.000000
    24  H    5.469114   3.236491   2.314944   0.000000
    25  H    5.590218   4.925627   4.374820   2.576773   0.000000
    26  H    4.662935   6.220836   5.912520   5.085338   3.056186
    27  H    5.151207   6.118950   5.331896   4.293085   2.491939
    28  H    6.156991   6.859375   6.361362   4.909313   2.425743
    29  H    4.780586   5.267273   5.623589   4.740341   3.062816
    30  H    5.482982   4.577916   4.936898   3.660825   2.473931
    31  H    6.254560   6.110238   6.178362   4.642139   2.459740
                   26         27         28         29         30
    26  H    0.000000
    27  H    1.774725   0.000000
    28  H    1.767122   1.767725   0.000000
    29  H    2.624402   3.811534   3.174645   0.000000
    30  H    3.800643   4.325487   3.739837   1.772537   0.000000
    31  H    3.052142   3.731257   2.509098   1.765132   1.760461
                   31
    31  H    0.000000
 Stoichiometry    C10H20O
 Framework group  C1[X(C10H20O)]
 Deg. of freedom    87
 Full point group                 C1      NOp   1
 Largest Abelian subgroup         C1      NOp   1
 Largest concise Abelian subgroup C1      NOp   1
                         Standard orientation:                         
 ---------------------------------------------------------------------
 Center     Atomic      Atomic             Coordinates (Angstroms)
 Number     Number       Type             X           Y           Z
 ---------------------------------------------------------------------
      1          6           0       -3.680486   -0.383703   -0.022083
      2          6           0       -2.182949   -0.340206   -0.317865
      3          6           0       -0.134153    1.111065    0.244228
      4          6           0        0.066610   -1.410986    0.157721
      5          6           0        0.636386   -0.074476   -0.366821
      6          6           0       -1.417903   -1.352036    0.534577
      7          6           0       -1.626281    1.078334   -0.119595
      8          8           0        0.410789    2.357222   -0.179202
      9          6           0        2.182586    0.042065   -0.227368
     10          6           0        2.902439   -1.122644   -0.916269
     11          6           0        2.671353    0.171010    1.218267
     12          1           0       -3.886817   -0.141846    1.026059
     13          1           0       -4.220651    0.333120   -0.649466
     14          1           0       -4.087107   -1.380110   -0.224700
     15          1           0       -2.048474   -0.615694   -1.372812
     16          1           0       -0.043833    1.080609    1.336479
     17          1           0        0.620900   -1.769961    1.031206
     18          1           0        0.202266   -2.173161   -0.620443
     19          1           0        0.442030   -0.045374   -1.450257
     20          1           0       -1.509426   -1.080468    1.594528
     21          1           0       -1.853398   -2.353444    0.433924
     22          1           0       -2.176138    1.604709    0.672018
     23          1           0       -1.814515    1.662744   -1.029968
     24          1           0        0.383531    2.378914   -1.151049
     25          1           0        2.493744    0.954648   -0.753264
     26          1           0        2.725506   -2.072342   -0.401287
     27          1           0        2.569715   -1.227483   -1.954218
     28          1           0        3.984296   -0.950855   -0.930846
     29          1           0        2.415809   -0.706964    1.818469
     30          1           0        2.249242    1.054176    1.706543
     31          1           0        3.761394    0.280466    1.243949
 ---------------------------------------------------------------------
 Rotational constants (GHZ):      1.7737574      0.6999351      0.5752079
 Standard basis: STO-3G (5D, 7F)
 There are    75 symmetry adapted basis functions of A   symmetry.
 Integral buffers will be    131072 words long.
 Raffenetti 1 integral format.
 Two-electron integral symmetry is turned on.
    75 basis functions,   225 primitive gaussians,    75 cartesian basis functions
    44 alpha electrons       44 beta electrons
       nuclear repulsion energy       690.2339106089 Hartrees.
 NAtoms=   31 NActive=   31 NUniq=   31 SFac= 1.00D+00 NAtFMM=   60 NAOKFM=F Big=F
 One-electron integrals computed using PRISM.
 NBasis=    75 RedAO= T  NBF=    75
 NBsUse=    75 1.00D-06 NBFU=    75
 Harris functional with IExCor=  205 diagonalized for initial guess.
 ExpMin= 1.69D-01 ExpMax= 1.31D+02 ExpMxC= 1.31D+02 IAcc=1 IRadAn=         1 AccDes= 0.00D+00
 HarFok:  IExCor=  205 AccDes= 0.00D+00 IRadAn=         1 IDoV= 1
 ScaDFX=  1.000000  1.000000  1.000000  1.000000
 FoFCou: FMM=F IPFlag=           0 FMFlag=      100000 FMFlg1=           0
         NFxFlg=           0 DoJE=T BraDBF=F KetDBF=T FulRan=T
         Omega=  0.000000  0.000000  1.000000  0.000000  0.000000 ICntrl=     500 IOpCl=  0
         NMat0=    1 NMatS0=    1 NMatT0=    0 NMatD0=    1 NMtDS0=    0 NMtDT0=    0
         I1Cent=           4 NGrid=           0.
 Petite list used in FoFCou.
 Initial guess orbital symmetries:
       Occupied  (A) (A) (A) (A) (A) (A) (A) (A) (A) (A) (A) (A)
                 (A) (A) (A) (A) (A) (A) (A) (A) (A) (A) (A) (A)
                 (A) (A) (A) (A) (A) (A) (A) (A) (A) (A) (A) (A)
                 (A) (A) (A) (A) (A) (A) (A) (A)
       Virtual   (A) (A) (A) (A) (A) (A) (A) (A) (A) (A) (A) (A)
                 (A) (A) (A) (A) (A) (A) (A) (A) (A) (A) (A) (A)
                 (A) (A) (A) (A) (A) (A) (A)
 The electronic state of the initial guess is 1-A.
 Requested convergence on RMS density matrix=1.00D-08 within 128 cycles.
 Requested convergence on MAX density matrix=1.00D-06.
 Requested convergence on             energy=1.00D-06.
 No special actions if energy rises.
 Keep R1 ints in memory in canonical form, NReq=4898789.
 SCF Done:  E(RHF) =  -459.613908924     A.U. after   10 cycles
             Convg  =    0.7955D-08             -V/T =  2.0089
 Range of M.O.s used for correlation:     1    75
 NBasis=    75 NAE=    44 NBE=    44 NFC=     0 NFV=     0
 NROrb=     75 NOA=    44 NOB=    44 NVA=    31 NVB=    31
          Differentiating once with respect to magnetic field using GIAOs.
          Electric field/nuclear overlap derivatives assumed to be zero.
          Keep R3 ints in memory in canonical form, NReq=4863575.
 FoFCou: FMM=F IPFlag=           0 FMFlag=           0 FMFlg1=           0
         NFxFlg=           0 DoJE=F BraDBF=F KetDBF=T FulRan=T
         Omega=  0.000000  0.000000  1.000000  0.000000  0.000000 ICntrl=    6100 IOpCl=  0
         NMat0=    1 NMatS0=    1 NMatT0=    0 NMatD0=    1 NMtDS0=    0 NMtDT0=    0
         I1Cent=           7 NGrid=          31.
 Symmetry not used in FoFCou.
          There are     3 degrees of freedom in the 1st order CPHF.  IDoFFX=0.
      3 vectors produced by pass  0 Test12= 4.55D-14 3.33D-08 XBig12= 7.35D+00 3.95D-01.
 AX will form     3 AO Fock derivatives at one time.
      3 vectors produced by pass  1 Test12= 4.55D-14 3.33D-08 XBig12= 1.04D-02 1.23D-02.
      3 vectors produced by pass  2 Test12= 4.55D-14 3.33D-08 XBig12= 6.99D-05 2.14D-03.
      3 vectors produced by pass  3 Test12= 4.55D-14 3.33D-08 XBig12= 1.72D-06 3.34D-04.
      3 vectors produced by pass  4 Test12= 4.55D-14 3.33D-08 XBig12= 2.05D-08 4.61D-05.
      3 vectors produced by pass  5 Test12= 4.55D-14 3.33D-08 XBig12= 3.54D-10 3.29D-06.
      3 vectors produced by pass  6 Test12= 4.55D-14 3.33D-08 XBig12= 3.77D-12 4.21D-07.
 Inverted reduced A of dimension    21 with in-core refinement.
 Calculating GIAO nuclear magnetic shielding tensors.
 SCF GIAO Magnetic shielding tensor (ppm):
      1  C    Isotropic =   221.2096   Anisotropy =    27.7323
   XX=   239.1817   YX=     3.4753   ZX=    -1.5649
   XY=     1.7802   YY=   213.5850   ZY=     0.9022
   XZ=    -4.2045   YZ=     3.0325   ZZ=   210.8620
   Eigenvalues:   209.3503   214.5806   239.6978
      2  C    Isotropic =   216.8003   Anisotropy =     9.9085
   XX=   223.1840   YX=     0.7655   ZX=     1.8213
   XY=     0.8484   YY=   217.9540   ZY=    -3.5321
   XZ=     1.3104   YZ=    -2.2628   ZZ=   209.2630
   Eigenvalues:   208.1854   218.8096   223.4060
      3  C    Isotropic =   189.8366   Anisotropy =    42.0952
   XX=   188.5224   YX=    12.2748   ZX=    -7.9984
   XY=    10.7429   YY=   209.1623   ZY=   -10.7215
   XZ=    -6.1057   YZ=   -11.1538   ZZ=   171.8252
   Eigenvalues:   167.9973   183.6125   217.9001
      4  C    Isotropic =   219.7196   Anisotropy =    16.1402
   XX=   229.0491   YX=     1.8796   ZX=    -3.1724
   XY=     1.6300   YY=   223.1130   ZY=    -2.8651
   XZ=    -4.3445   YZ=    -4.7628   ZZ=   206.9967
   Eigenvalues:   205.6718   223.0073   230.4797
      5  C    Isotropic =   210.1630   Anisotropy =    15.3474
   XX=   219.0038   YX=    -7.7220   ZX=     0.9596
   XY=     0.3489   YY=   210.6071   ZY=     2.0892
   XZ=     1.6835   YZ=     3.8237   ZZ=   200.8782
   Eigenvalues:   199.7704   210.3240   220.3947
      6  C    Isotropic =   217.5309   Anisotropy =    17.4510
   XX=   226.5887   YX=    -2.9912   ZX=     1.5881
   XY=    -5.3022   YY=   216.0175   ZY=    -6.8387
   XZ=     3.6121   YZ=    -5.4940   ZZ=   209.9867
   Eigenvalues:   206.1380   217.2900   229.1649
      7  C    Isotropic =   213.4038   Anisotropy =    26.7899
   XX=   226.2391   YX=     9.0435   ZX=     2.1485
   XY=     8.8420   YY=   215.3454   ZY=    -2.4618
   XZ=     1.5205   YZ=    -3.5384   ZZ=   198.6268
   Eigenvalues:   197.6517   211.2960   231.2638
      8  O    Isotropic =   349.7343   Anisotropy =    88.3135
   XX=   326.5341   YX=     1.4976   ZX=    20.3624
   XY=     6.9307   YY=   317.2067   ZY=    16.5987
   XZ=    11.3870   YZ=   -12.9135   ZZ=   405.4621
   Eigenvalues:   315.3626   325.2304   408.6100
      9  C    Isotropic =   214.7038   Anisotropy =    13.6641
   XX=   223.7359   YX=    -0.3637   ZX=    -0.0759
   XY=    -1.4773   YY=   208.1323   ZY=     4.8329
   XZ=     1.5984   YZ=     4.5174   ZZ=   212.2432
   Eigenvalues:   205.0056   215.2927   223.8133
     10  C    Isotropic =   221.6311   Anisotropy =    25.2595
   XX=   221.9419   YX=    -8.3591   ZX=    -6.0612
   XY=    -9.2403   YY=   222.4320   ZY=    12.5770
   XZ=    -4.2204   YZ=     9.2009   ZZ=   220.5195
   Eigenvalues:   209.9342   216.4884   238.4708
     11  C    Isotropic =   224.7277   Anisotropy =    20.5228
   XX=   222.4553   YX=     0.6553   ZX=     7.0859
   XY=    -0.0593   YY=   216.4606   ZY=     2.6771
   XZ=     4.9628   YZ=     5.8236   ZZ=   235.2674
   Eigenvalues:   215.3671   220.4065   238.4096
     12  H    Isotropic =    32.6750   Anisotropy =    11.7709
   XX=    34.1839   YX=    -0.8170   ZX=    -5.0298
   XY=    -0.5478   YY=    27.7195   ZY=     1.7927
   XZ=    -4.9937   YZ=     1.8505   ZZ=    36.1215
   Eigenvalues:    27.3117    30.1910    40.5222
     13  H    Isotropic =    32.4050   Anisotropy =    13.6196
   XX=    37.1094   YX=    -4.0816   ZX=     4.3411
   XY=    -3.8594   YY=    30.8033   ZY=    -3.8336
   XZ=     4.1981   YZ=    -3.4824   ZZ=    29.3022
   Eigenvalues:    26.2200    29.5101    41.4847
     14  H    Isotropic =    32.5224   Anisotropy =    13.9155
   XX=    35.4988   YX=     6.1268   ZX=     1.3492
   XY=     5.8776   YY=    35.5089   ZY=     1.6099
   XZ=     1.3236   YZ=     1.6967   ZZ=    26.5595
   Eigenvalues:    26.2512    29.5166    41.7994
     15  H    Isotropic =    32.7440   Anisotropy =    10.4083
   XX=    31.6347   YX=     0.3855   ZX=     0.8467
   XY=     0.4034   YY=    27.8148   ZY=     3.0408
   XZ=     0.9028   YZ=     3.0513   ZZ=    38.7825
   Eigenvalues:    27.0198    31.5294    39.6829
     16  H    Isotropic =    31.5124   Anisotropy =     7.5427
   XX=    30.6811   YX=    -0.4371   ZX=     0.6808
   XY=    -0.1867   YY=    27.9435   ZY=     1.4099
   XZ=     1.1474   YZ=     2.7700   ZZ=    35.9127
   Eigenvalues:    27.3453    30.6510    36.5409
     17  H    Isotropic =    32.5715   Anisotropy =    11.2131
   XX=    35.1420   YX=    -1.1457   ZX=     3.6722
   XY=    -1.2293   YY=    30.5073   ZY=    -5.9502
   XZ=     3.7758   YZ=    -6.0579   ZZ=    32.0653
   Eigenvalues:    24.9637    32.7040    40.0469
     18  H    Isotropic =    32.4619   Anisotropy =    12.4139
   XX=    31.3947   YX=    -0.3620   ZX=    -2.8656
   XY=    -0.5565   YY=    36.7008   ZY=     6.2893
   XZ=    -2.7314   YZ=     6.4879   ZZ=    29.2901
   Eigenvalues:    24.8494    31.7984    40.7378
     19  H    Isotropic =    33.0425   Anisotropy =     8.2981
   XX=    33.0164   YX=    -0.6237   ZX=     0.9503
   XY=    -1.0865   YY=    27.6383   ZY=    -0.3411
   XZ=     0.4585   YZ=    -0.1800   ZZ=    38.4727
   Eigenvalues:    27.5036    33.0493    38.5746
     20  H    Isotropic =    32.7933   Anisotropy =    10.9427
   XX=    31.2037   YX=    -0.3081   ZX=    -2.0389
   XY=    -0.1294   YY=    27.6898   ZY=    -1.2910
   XZ=    -2.0020   YZ=    -1.4664   ZZ=    39.4865
   Eigenvalues:    27.4717    30.8198    40.0885
     21  H    Isotropic =    32.5131   Anisotropy =    13.9301
   XX=    32.7857   YX=     4.3763   ZX=    -0.2380
   XY=     4.2526   YY=    39.6193   ZY=    -1.4307
   XZ=    -0.2462   YZ=    -1.1124   ZZ=    25.1343
   Eigenvalues:    25.0208    30.7186    41.7999
     22  H    Isotropic =    32.0741   Anisotropy =    12.2143
   XX=    34.2461   YX=    -3.0678   ZX=    -4.0953
   XY=    -2.4633   YY=    32.4262   ZY=     5.1616
   XZ=    -3.8874   YZ=     5.5731   ZZ=    29.5500
   Eigenvalues:    25.1279    30.8774    40.2170
     23  H    Isotropic =    32.6580   Anisotropy =    11.8373
   XX=    31.5428   YX=    -1.0328   ZX=     2.6260
   XY=    -0.7497   YY=    34.1420   ZY=    -6.3948
   XZ=     3.4421   YZ=    -6.5312   ZZ=    32.2891
   Eigenvalues:    26.0942    31.3302    40.5495
     24  H    Isotropic =    35.4031   Anisotropy =    15.2769
   XX=    28.8029   YX=     1.9922   ZX=    -0.3757
   XY=     1.8749   YY=    35.3314   ZY=    -4.7831
   XZ=    -1.6935   YZ=    -6.7436   ZZ=    42.0750
   Eigenvalues:    28.2438    32.3779    45.5877
     25  H    Isotropic =    32.1991   Anisotropy =    11.4579
   XX=    32.2099   YX=     2.5426   ZX=    -2.5145
   XY=     2.1812   YY=    35.4586   ZY=    -5.4156
   XZ=    -2.9646   YZ=    -4.9218   ZZ=    28.9287
   Eigenvalues:    25.7918    30.9677    39.8377
     26  H    Isotropic =    32.5939   Anisotropy =     9.7926
   XX=    31.0554   YX=    -1.8381   ZX=    -1.5667
   XY=    -1.9990   YY=    38.4429   ZY=    -1.9071
   XZ=    -1.5908   YZ=    -1.9095   ZZ=    28.2835
   Eigenvalues:    26.9997    31.6596    39.1223
     27  H    Isotropic =    32.6349   Anisotropy =    12.3877
   XX=    30.3088   YX=    -1.4036   ZX=    -0.4921
   XY=    -1.3178   YY=    28.0611   ZY=     4.2327
   XZ=    -0.4588   YZ=     3.8735   ZZ=    39.5347
   Eigenvalues:    26.4267    30.5846    40.8934
     28  H    Isotropic =    32.4537   Anisotropy =    14.7335
   XX=    41.5829   YX=    -0.9423   ZX=    -2.7859
   XY=    -1.3119   YY=    27.5701   ZY=     1.4677
   XZ=    -2.7918   YZ=     1.5666   ZZ=    28.2080
   Eigenvalues:    26.2774    28.8077    42.2760
     29  H    Isotropic =    32.7371   Anisotropy =    10.2672
   XX=    30.3090   YX=     1.2786   ZX=     1.6976
   XY=     1.1985   YY=    32.4108   ZY=    -5.3481
   XZ=     1.7151   YZ=    -5.3949   ZZ=    35.4914
   Eigenvalues:    27.0888    31.5405    39.5819
     30  H    Isotropic =    32.2341   Anisotropy =    10.7550
   XX=    30.7634   YX=    -2.2945   ZX=     1.7644
   XY=    -2.2727   YY=    33.0859   ZY=     6.1868
   XZ=     1.5376   YZ=     6.6248   ZZ=    32.8528
   Eigenvalues:    25.1771    32.1210    39.4041
     31  H    Isotropic =    32.5465   Anisotropy =    14.8561
   XX=    40.9142   YX=     2.0244   ZX=     3.8721
   XY=     1.7936   YY=    26.9553   ZY=     1.4968
   XZ=     3.8345   YZ=     1.5096   ZZ=    29.7700
   Eigenvalues:    26.2987    28.8902    42.4505
 End of Minotr Frequency-dependent properties file   721 does not exist.
 End of Minotr Frequency-dependent properties file   722 does not exist.

 **********************************************************************

            Population analysis using the SCF density.

 **********************************************************************

 Orbital symmetries:
       Occupied  (A) (A) (A) (A) (A) (A) (A) (A) (A) (A) (A) (A)
                 (A) (A) (A) (A) (A) (A) (A) (A) (A) (A) (A) (A)
                 (A) (A) (A) (A) (A) (A) (A) (A) (A) (A) (A) (A)
                 (A) (A) (A) (A) (A) (A) (A) (A)
       Virtual   (A) (A) (A) (A) (A) (A) (A) (A) (A) (A) (A) (A)
                 (A) (A) (A) (A) (A) (A) (A) (A) (A) (A) (A) (A)
                 (A) (A) (A) (A) (A) (A) (A)
 The electronic state is 1-A.
 Alpha  occ. eigenvalues --  -20.23945 -11.08472 -11.04827 -11.04619 -11.04283
 Alpha  occ. eigenvalues --  -11.03777 -11.03677 -11.03563 -11.03325 -11.03041
 Alpha  occ. eigenvalues --  -11.02645  -1.27958  -1.08323  -1.03779  -0.96814
 Alpha  occ. eigenvalues --   -0.94653  -0.88787  -0.87993  -0.80099  -0.79074
 Alpha  occ. eigenvalues --   -0.73609  -0.68507  -0.63104  -0.60814  -0.58834
 Alpha  occ. eigenvalues --   -0.57998  -0.54909  -0.53849  -0.53685  -0.52604
 Alpha  occ. eigenvalues --   -0.51968  -0.50348  -0.48821  -0.48005  -0.46990
 Alpha  occ. eigenvalues --   -0.45951  -0.44297  -0.42948  -0.42629  -0.42098
 Alpha  occ. eigenvalues --   -0.39744  -0.38860  -0.36039  -0.32614
 Alpha virt. eigenvalues --    0.53796   0.54701   0.57275   0.60118   0.60853
 Alpha virt. eigenvalues --    0.61451   0.62130   0.63725   0.65061   0.65907
 Alpha virt. eigenvalues --    0.67970   0.69813   0.70158   0.71200   0.71632
 Alpha virt. eigenvalues --    0.72596   0.73155   0.74162   0.74631   0.76424
 Alpha virt. eigenvalues --    0.76665   0.78097   0.79012   0.79282   0.80229
 Alpha virt. eigenvalues --    0.80889   0.81840   0.82870   0.84772   0.85973
 Alpha virt. eigenvalues --    0.87579
          Condensed to atoms (all electrons):
              1          2          3          4          5          6
     1  C    4.738693   0.366005   0.000655   0.000731   0.000020  -0.023799
     2  C    0.366005   4.744835  -0.018727  -0.022093  -0.006426   0.364392
     3  C    0.000655  -0.018727   4.744007  -0.021364   0.355396  -0.007362
     4  C    0.000731  -0.022093  -0.021364   4.760029   0.358977   0.361135
     5  C    0.000020  -0.006426   0.355396   0.358977   4.794593  -0.019412
     6  C   -0.023799   0.364392  -0.007362   0.361135  -0.019412   4.756736
     7  C   -0.023987   0.360316   0.356334  -0.002629  -0.024087  -0.023426
     8  O   -0.000001   0.000250   0.270037   0.000224  -0.017131   0.000006
     9  C    0.000000   0.000020  -0.018655  -0.019026   0.359173   0.000542
    10  C    0.000000   0.000000   0.000593  -0.002392  -0.021938   0.000011
    11  C    0.000000   0.000000  -0.002100  -0.001668  -0.020492   0.000006
    12  H    0.382283  -0.020770   0.000014   0.000006   0.000000  -0.002183
    13  H    0.382467  -0.020337   0.000010  -0.000017   0.000000   0.001293
    14  H    0.382299  -0.020298  -0.000016   0.000013   0.000000  -0.002201
    15  H   -0.024659   0.382260   0.000150  -0.002404  -0.000201  -0.024957
    16  H   -0.000011   0.000408   0.379618  -0.001845  -0.024644  -0.000122
    17  H   -0.000016   0.001267  -0.000118   0.382237  -0.020655  -0.023135
    18  H   -0.000009  -0.000130   0.001227   0.382849  -0.022423  -0.022892
    19  H    0.000000  -0.000107  -0.026202  -0.023960   0.378941   0.000077
    20  H   -0.001902  -0.023177  -0.000155  -0.022876   0.000091   0.381521
    21  H   -0.002500  -0.020658   0.000062  -0.021675   0.001099   0.383512
    22  H   -0.005139  -0.021106  -0.022693   0.000006   0.001217  -0.000071
    23  H   -0.000002  -0.021773  -0.021289   0.000036  -0.000144   0.001260
    24  H    0.000000  -0.000007  -0.042218  -0.000007  -0.003184   0.000002
    25  H    0.000000  -0.000001  -0.001644   0.001096  -0.023134  -0.000012
    26  H    0.000000   0.000000  -0.000002  -0.000596  -0.001385   0.000005
    27  H    0.000000   0.000000   0.000014  -0.000086  -0.002380  -0.000001
    28  H    0.000000   0.000000  -0.000013   0.000023   0.001161   0.000000
    29  H    0.000000   0.000000   0.000011  -0.000605  -0.001526  -0.000010
    30  H    0.000000   0.000000  -0.000794   0.000049  -0.001603  -0.000002
    31  H    0.000000   0.000000   0.000023   0.000013   0.001120   0.000000
              7          8          9         10         11         12
     1  C   -0.023987  -0.000001   0.000000   0.000000   0.000000   0.382283
     2  C    0.360316   0.000250   0.000020   0.000000   0.000000  -0.020770
     3  C    0.356334   0.270037  -0.018655   0.000593  -0.002100   0.000014
     4  C   -0.002629   0.000224  -0.019026  -0.002392  -0.001668   0.000006
     5  C   -0.024087  -0.017131   0.359173  -0.021938  -0.020492   0.000000
     6  C   -0.023426   0.000006   0.000542   0.000011   0.000006  -0.002183
     7  C    4.787453  -0.020230   0.000573  -0.000004   0.000006  -0.002291
     8  O   -0.020230   7.843690  -0.001180   0.000001  -0.000035   0.000000
     9  C    0.000573  -0.001180   4.737417   0.364297   0.364375   0.000000
    10  C   -0.000004   0.000001   0.364297   4.743022  -0.025874   0.000000
    11  C    0.000006  -0.000035   0.364375  -0.025874   4.742030   0.000000
    12  H   -0.002291   0.000000   0.000000   0.000000   0.000000   0.629719
    13  H   -0.002141   0.000000   0.000000   0.000000   0.000000  -0.021615
    14  H    0.001288   0.000000   0.000000   0.000000   0.000000  -0.021754
    15  H   -0.024196  -0.000002   0.000000   0.000000   0.000000   0.001917
    16  H   -0.025005  -0.019192  -0.001380  -0.000003  -0.000549   0.000003
    17  H    0.000011  -0.000003  -0.003651  -0.000274  -0.000587   0.000000
    18  H   -0.000001  -0.000005   0.000057  -0.000391   0.000029   0.000000
    19  H   -0.002764  -0.000845  -0.025334  -0.002285   0.001190   0.000000
    20  H   -0.002341   0.000000  -0.000007   0.000000   0.000005   0.000385
    21  H    0.001232   0.000000  -0.000010   0.000000   0.000000  -0.000006
    22  H    0.381932   0.000263  -0.000013   0.000000   0.000000   0.000336
    23  H    0.380091  -0.002643  -0.000010   0.000000   0.000000   0.000002
    24  H   -0.002837   0.257086  -0.000150  -0.000007   0.000013   0.000000
    25  H    0.000010   0.000227   0.381960  -0.024956  -0.024626   0.000000
    26  H    0.000000   0.000000  -0.020286   0.382439  -0.002406   0.000000
    27  H    0.000000   0.000000  -0.020332   0.381863   0.001318   0.000000
    28  H    0.000000   0.000000  -0.019882   0.382745  -0.002084   0.000000
    29  H   -0.000002   0.000001  -0.020403  -0.001994   0.381896   0.000000
    30  H    0.000006   0.000097  -0.019565   0.001312   0.383114   0.000000
    31  H    0.000000   0.000000  -0.019934  -0.002654   0.382353   0.000000
             13         14         15         16         17         18
     1  C    0.382467   0.382299  -0.024659  -0.000011  -0.000016  -0.000009
     2  C   -0.020337  -0.020298   0.382260   0.000408   0.001267  -0.000130
     3  C    0.000010  -0.000016   0.000150   0.379618  -0.000118   0.001227
     4  C   -0.000017   0.000013  -0.002404  -0.001845   0.382237   0.382849
     5  C    0.000000   0.000000  -0.000201  -0.024644  -0.020655  -0.022423
     6  C    0.001293  -0.002201  -0.024957  -0.000122  -0.023135  -0.022892
     7  C   -0.002141   0.001288  -0.024196  -0.025005   0.000011  -0.000001
     8  O    0.000000   0.000000  -0.000002  -0.019192  -0.000003  -0.000005
     9  C    0.000000   0.000000   0.000000  -0.001380  -0.003651   0.000057
    10  C    0.000000   0.000000   0.000000  -0.000003  -0.000274  -0.000391
    11  C    0.000000   0.000000   0.000000  -0.000549  -0.000587   0.000029
    12  H   -0.021615  -0.021754   0.001917   0.000003   0.000000   0.000000
    13  H    0.629818  -0.021597  -0.002305   0.000000   0.000000   0.000000
    14  H   -0.021597   0.630486  -0.002402   0.000000  -0.000001   0.000001
    15  H   -0.002305  -0.002402   0.655426  -0.000022   0.000009   0.000298
    16  H    0.000000   0.000000  -0.000022   0.633804   0.000220  -0.000002
    17  H    0.000000  -0.000001   0.000009   0.000220   0.641516  -0.024043
    18  H    0.000000   0.000001   0.000298  -0.000002  -0.024043   0.646332
    19  H    0.000000   0.000000  -0.000481   0.001937   0.001844  -0.006028
    20  H    0.000000   0.000010   0.002005  -0.000435  -0.005769   0.001962
    21  H    0.000024   0.000208  -0.001956   0.000004   0.000208  -0.005700
    22  H   -0.000092   0.000069   0.001857  -0.005895   0.000002   0.000001
    23  H    0.000207  -0.000024  -0.005661   0.001721   0.000001   0.000002
    24  H    0.000000   0.000000   0.000004   0.003626   0.000000   0.000000
    25  H    0.000000   0.000000   0.000000   0.000022   0.000027  -0.000020
    26  H    0.000000   0.000000   0.000000   0.000001  -0.000145  -0.000592
    27  H    0.000000   0.000000   0.000000   0.000000   0.000028  -0.000042
    28  H    0.000000   0.000000   0.000000   0.000000  -0.000009   0.000012
    29  H    0.000000   0.000000   0.000000   0.000013  -0.000403   0.000019
    30  H    0.000000   0.000000   0.000000  -0.000768   0.000034  -0.000002
    31  H    0.000000   0.000000   0.000000   0.000002  -0.000018  -0.000001
             19         20         21         22         23         24
     1  C    0.000000  -0.001902  -0.002500  -0.005139  -0.000002   0.000000
     2  C   -0.000107  -0.023177  -0.020658  -0.021106  -0.021773  -0.000007
     3  C   -0.026202  -0.000155   0.000062  -0.022693  -0.021289  -0.042218
     4  C   -0.023960  -0.022876  -0.021675   0.000006   0.000036  -0.000007
     5  C    0.378941   0.000091   0.001099   0.001217  -0.000144  -0.003184
     6  C    0.000077   0.381521   0.383512  -0.000071   0.001260   0.000002
     7  C   -0.002764  -0.002341   0.001232   0.381932   0.380091  -0.002837
     8  O   -0.000845   0.000000   0.000000   0.000263  -0.002643   0.257086
     9  C   -0.025334  -0.000007  -0.000010  -0.000013  -0.000010  -0.000150
    10  C   -0.002285   0.000000   0.000000   0.000000   0.000000  -0.000007
    11  C    0.001190   0.000005   0.000000   0.000000   0.000000   0.000013
    12  H    0.000000   0.000385  -0.000006   0.000336   0.000002   0.000000
    13  H    0.000000   0.000000   0.000024  -0.000092   0.000207   0.000000
    14  H    0.000000   0.000010   0.000208   0.000069  -0.000024   0.000000
    15  H   -0.000481   0.002005  -0.001956   0.001857  -0.005661   0.000004
    16  H    0.001937  -0.000435   0.000004  -0.005895   0.001721   0.003626
    17  H    0.001844  -0.005769   0.000208   0.000002   0.000001   0.000000
    18  H   -0.006028   0.001962  -0.005700   0.000001   0.000002   0.000000
    19  H    0.668645  -0.000025  -0.000018   0.000013   0.000231   0.000736
    20  H   -0.000025   0.647137  -0.023894   0.000282   0.000007  -0.000001
    21  H   -0.000018  -0.023894   0.638214  -0.000020  -0.000033   0.000000
    22  H    0.000013   0.000282  -0.000020   0.638987  -0.024532  -0.000027
    23  H    0.000231   0.000007  -0.000033  -0.024532   0.644447   0.000830
    24  H    0.000736  -0.000001   0.000000  -0.000027   0.000830   0.610683
    25  H   -0.003056   0.000000   0.000000  -0.000001   0.000000  -0.000165
    26  H    0.000014   0.000000   0.000001   0.000000   0.000000   0.000000
    27  H    0.000308   0.000000   0.000000   0.000000   0.000000   0.000000
    28  H    0.000014   0.000000   0.000000   0.000000   0.000000   0.000000
    29  H   -0.000003   0.000005   0.000001   0.000000   0.000000  -0.000001
    30  H    0.000013  -0.000001   0.000000   0.000001   0.000000  -0.000011
    31  H   -0.000030   0.000000   0.000000   0.000000   0.000000   0.000001
             25         26         27         28         29         30
     1  C    0.000000   0.000000   0.000000   0.000000   0.000000   0.000000
     2  C   -0.000001   0.000000   0.000000   0.000000   0.000000   0.000000
     3  C   -0.001644  -0.000002   0.000014  -0.000013   0.000011  -0.000794
     4  C    0.001096  -0.000596  -0.000086   0.000023  -0.000605   0.000049
     5  C   -0.023134  -0.001385  -0.002380   0.001161  -0.001526  -0.001603
     6  C   -0.000012   0.000005  -0.000001   0.000000  -0.000010  -0.000002
     7  C    0.000010   0.000000   0.000000   0.000000  -0.000002   0.000006
     8  O    0.000227   0.000000   0.000000   0.000000   0.000001   0.000097
     9  C    0.381960  -0.020286  -0.020332  -0.019882  -0.020403  -0.019565
    10  C   -0.024956   0.382439   0.381863   0.382745  -0.001994   0.001312
    11  C   -0.024626  -0.002406   0.001318  -0.002084   0.381896   0.383114
    12  H    0.000000   0.000000   0.000000   0.000000   0.000000   0.000000
    13  H    0.000000   0.000000   0.000000   0.000000   0.000000   0.000000
    14  H    0.000000   0.000000   0.000000   0.000000   0.000000   0.000000
    15  H    0.000000   0.000000   0.000000   0.000000   0.000000   0.000000
    16  H    0.000022   0.000001   0.000000   0.000000   0.000013  -0.000768
    17  H    0.000027  -0.000145   0.000028  -0.000009  -0.000403   0.000034
    18  H   -0.000020  -0.000592  -0.000042   0.000012   0.000019  -0.000002
    19  H   -0.003056   0.000014   0.000308   0.000014  -0.000003   0.000013
    20  H    0.000000   0.000000   0.000000   0.000000   0.000005  -0.000001
    21  H    0.000000   0.000001   0.000000   0.000000   0.000001   0.000000
    22  H   -0.000001   0.000000   0.000000   0.000000   0.000000   0.000001
    23  H    0.000000   0.000000   0.000000   0.000000   0.000000   0.000000
    24  H   -0.000165   0.000000   0.000000   0.000000  -0.000001  -0.000011
    25  H    0.648176   0.001926  -0.001939  -0.002990   0.001909  -0.002426
    26  H    0.001926   0.630217  -0.021664  -0.022055   0.000362   0.000013
    27  H   -0.001939  -0.021664   0.633624  -0.021695   0.000006  -0.000037
    28  H   -0.002990  -0.022055  -0.021695   0.629983  -0.000005   0.000022
    29  H    0.001909   0.000362   0.000006  -0.000005   0.633714  -0.021782
    30  H   -0.002426   0.000013  -0.000037   0.000022  -0.021782   0.623600
    31  H   -0.002374  -0.000021   0.000034   0.000105  -0.022045  -0.021831
             31
     1  C    0.000000
     2  C    0.000000
     3  C    0.000023
     4  C    0.000013
     5  C    0.001120
     6  C    0.000000
     7  C    0.000000
     8  O    0.000000
     9  C   -0.019934
    10  C   -0.002654
    11  C    0.382353
    12  H    0.000000
    13  H    0.000000
    14  H    0.000000
    15  H    0.000000
    16  H    0.000002
    17  H   -0.000018
    18  H   -0.000001
    19  H   -0.000030
    20  H    0.000000
    21  H    0.000000
    22  H    0.000000
    23  H    0.000000
    24  H    0.000001
    25  H   -0.002374
    26  H   -0.000021
    27  H    0.000034
    28  H    0.000105
    29  H   -0.022045
    30  H   -0.021831
    31  H    0.630997
 Mulliken atomic charges:
              1
     1  C   -0.171129
     2  C   -0.024143
     3  C    0.075201
     4  C   -0.104183
     5  C   -0.041023
     6  C   -0.100912
     7  C   -0.113311
     8  O   -0.310617
     9  C   -0.018598
    10  C   -0.173511
    11  C   -0.175915
    12  H    0.053955
    13  H    0.054285
    14  H    0.053916
    15  H    0.045319
    16  H    0.058496
    17  H    0.051425
    18  H    0.049489
    19  H    0.037175
    20  H    0.047171
    21  H    0.051904
    22  H    0.054620
    23  H    0.047277
    24  H    0.175634
    25  H    0.051991
    26  H    0.054175
    27  H    0.050983
    28  H    0.054666
    29  H    0.050841
    30  H    0.060561
    31  H    0.054259
 Sum of Mulliken atomic charges =   0.00000
 Mulliken charges with hydrogens summed into heavy atoms:
              1
     1  C   -0.008973
     2  C    0.021177
     3  C    0.133697
     4  C   -0.003269
     5  C   -0.003848
     6  C   -0.001838
     7  C   -0.011413
     8  O   -0.134983
     9  C    0.033393
    10  C   -0.013688
    11  C   -0.010253
 Sum of Mulliken charges with hydrogens summed into heavy atoms =   0.00000
 Electronic spatial extent (au):  <R**2>=           2182.8950
 Charge=              0.0000 electrons
 Dipole moment (field-independent basis, Debye):
    X=             -0.4934    Y=             -1.0712    Z=             -0.8876  Tot=              1.4761
 Quadrupole moment (field-independent basis, Debye-Ang):
   XX=            -68.3971   YY=            -71.9491   ZZ=            -65.3440
   XY=             -1.0263   XZ=             -0.3873   YZ=             -2.4372
 Traceless Quadrupole moment (field-independent basis, Debye-Ang):
   XX=              0.1663   YY=             -3.3857   ZZ=              3.2194
   XY=             -1.0263   XZ=             -0.3873   YZ=             -2.4372
 Octapole moment (field-independent basis, Debye-Ang**2):
  XXX=              6.9594  YYY=             -0.9204  ZZZ=             -3.2745  XYY=             -3.7052
  XXY=              5.4166  XXZ=             -0.7942  XZZ=             -0.4389  YZZ=              9.2205
  YYZ=             -6.3213  XYZ=             -2.0871
 Hexadecapole moment (field-independent basis, Debye-Ang**3):
 XXXX=          -1920.7599 YYYY=           -636.8068 ZZZZ=           -259.8200 XXXY=              7.9563
 XXXZ=              1.1012 YYYX=              2.6402 YYYZ=            -18.2902 ZZZX=             -4.2327
 ZZZY=             -7.1173 XXYY=           -420.7291 XXZZ=           -365.4027 YYZZ=           -133.6698
 XXYZ=             -3.5258 YYXZ=              0.7095 ZZXY=              1.4658
 N-N= 6.902339106089D+02 E-N=-2.452387153718D+03  KE= 4.555491050223D+02
 ******************************Gaussian NBO Version 3.1******************************
             N A T U R A L   A T O M I C   O R B I T A L   A N D
          N A T U R A L   B O N D   O R B I T A L   A N A L Y S I S
 ******************************Gaussian NBO Version 3.1******************************
       /RESON  / : Allow strongly delocalized NBO set
       /NLMO   / : Form Natural Localized Molecular Orbitals
       /NMR /    : Analyze NMR Sheilding Tensor 

 Analyzing the SCF density

 Job title: comment                                                         

 Storage needed:     19864 in NPA,     23691 in NBO,     45933 in NLMO (  33549317 available)


 NATURAL POPULATIONS:  Natural atomic orbital occupancies 
                                                          
   NAO  Atom  No  lang   Type(AO)    Occupancy      Energy
 ----------------------------------------------------------
     1    C    1  S      Cor( 1S)     1.99997     -10.96673
     2    C    1  S      Val( 2S)     1.07962      -0.18290
     3    C    1  px     Val( 2p)     0.99073       0.08708
     4    C    1  py     Val( 2p)     1.02880       0.08236
     5    C    1  pz     Val( 2p)     1.02711       0.08289

     6    C    2  S      Cor( 1S)     1.99997     -10.99058
     7    C    2  S      Val( 2S)     1.07850      -0.19278
     8    C    2  px     Val( 2p)     0.95637       0.10771
     9    C    2  py     Val( 2p)     0.95879       0.10735
    10    C    2  pz     Val( 2p)     0.99241       0.09978

    11    C    3  S      Cor( 1S)     1.99989     -11.03384
    12    C    3  S      Val( 2S)     1.08777      -0.21625
    13    C    3  px     Val( 2p)     0.93497       0.09820
    14    C    3  py     Val( 2p)     0.84556       0.12449
    15    C    3  pz     Val( 2p)     0.99100       0.07924

    16    C    4  S      Cor( 1S)     1.99995     -10.97573
    17    C    4  S      Val( 2S)     1.08574      -0.19121
    18    C    4  px     Val( 2p)     0.97793       0.09712
    19    C    4  py     Val( 2p)     0.98760       0.09342
    20    C    4  pz     Val( 2p)     1.01469       0.09373

    21    C    5  S      Cor( 1S)     1.99996     -10.98816
    22    C    5  S      Val( 2S)     1.10275      -0.21265
    23    C    5  px     Val( 2p)     0.96361       0.10340
    24    C    5  py     Val( 2p)     0.96359       0.10156
    25    C    5  pz     Val( 2p)     0.99029       0.09664

    26    C    6  S      Cor( 1S)     1.99996     -10.97581
    27    C    6  S      Val( 2S)     1.08341      -0.18955
    28    C    6  px     Val( 2p)     0.97450       0.09684
    29    C    6  py     Val( 2p)     1.00284       0.09336
    30    C    6  pz     Val( 2p)     1.00293       0.09273

    31    C    7  S      Cor( 1S)     1.99996     -10.97448
    32    C    7  S      Val( 2S)     1.09579      -0.19988
    33    C    7  px     Val( 2p)     0.98849       0.08768
    34    C    7  py     Val( 2p)     0.98474       0.09490
    35    C    7  pz     Val( 2p)     1.02033       0.08657

    36    O    8  S      Cor( 1S)     1.99999     -20.14305
    37    O    8  S      Val( 2S)     1.74920      -0.99900
    38    O    8  px     Val( 2p)     1.87553      -0.33131
    39    O    8  py     Val( 2p)     1.45002      -0.15923
    40    O    8  pz     Val( 2p)     1.25615      -0.08403

    41    C    9  S      Cor( 1S)     1.99996     -10.99021
    42    C    9  S      Val( 2S)     1.08383      -0.19410
    43    C    9  px     Val( 2p)     0.94957       0.11338
    44    C    9  py     Val( 2p)     0.98223       0.10579
    45    C    9  pz     Val( 2p)     0.96239       0.11117

    46    C   10  S      Cor( 1S)     1.99997     -10.96421
    47    C   10  S      Val( 2S)     1.08083      -0.18201
    48    C   10  px     Val( 2p)     1.02101       0.08399
    49    C   10  py     Val( 2p)     1.00885       0.08754
    50    C   10  pz     Val( 2p)     1.01861       0.08584

    51    C   11  S      Cor( 1S)     1.99997     -10.96011
    52    C   11  S      Val( 2S)     1.07941      -0.17690
    53    C   11  px     Val( 2p)     1.02695       0.08594
    54    C   11  py     Val( 2p)     1.02974       0.08922
    55    C   11  pz     Val( 2p)     0.99623       0.09313

    56    H   12  S      Val( 1S)     0.96341       0.07330

    57    H   13  S      Val( 1S)     0.96301       0.07292

    58    H   14  S      Val( 1S)     0.96340       0.07333

    59    H   15  S      Val( 1S)     0.97855       0.06191

    60    H   16  S      Val( 1S)     0.97664       0.05827

    61    H   17  S      Val( 1S)     0.96996       0.07302

    62    H   18  S      Val( 1S)     0.97149       0.06996

    63    H   19  S      Val( 1S)     0.98706       0.05430

    64    H   20  S      Val( 1S)     0.97352       0.06753

    65    H   21  S      Val( 1S)     0.96868       0.06962

    66    H   22  S      Val( 1S)     0.96646       0.07251

    67    H   23  S      Val( 1S)     0.97258       0.06327

    68    H   24  S      Val( 1S)     0.81202       0.07395

    69    H   25  S      Val( 1S)     0.97367       0.07116

    70    H   26  S      Val( 1S)     0.96343       0.07600

    71    H   27  S      Val( 1S)     0.96618       0.07289

    72    H   28  S      Val( 1S)     0.96261       0.07540

    73    H   29  S      Val( 1S)     0.96630       0.07813

    74    H   30  S      Val( 1S)     0.95745       0.08649

    75    H   31  S      Val( 1S)     0.96260       0.07859


 Summary of Natural Population Analysis:                  
                                                          
                                       Natural Population 
                Natural  -----------------------------------------------
    Atom  No    Charge         Core      Valence    Rydberg      Total
 -----------------------------------------------------------------------
      C    1   -0.12623      1.99997     4.12626    0.00000     6.12623
      C    2    0.01395      1.99997     3.98608    0.00000     5.98605
      C    3    0.14081      1.99989     3.85929    0.00000     5.85919
      C    4   -0.06591      1.99995     4.06596    0.00000     6.06591
      C    5   -0.02019      1.99996     4.02024    0.00000     6.02019
      C    6   -0.06364      1.99996     4.06368    0.00000     6.06364
      C    7   -0.08931      1.99996     4.08935    0.00000     6.08931
      O    8   -0.33089      1.99999     6.33089    0.00000     8.33089
      C    9    0.02202      1.99996     3.97802    0.00000     5.97798
      C   10   -0.12927      1.99997     4.12930    0.00000     6.12927
      C   11   -0.13231      1.99997     4.13234    0.00000     6.13231
      H   12    0.03659      0.00000     0.96341    0.00000     0.96341
      H   13    0.03699      0.00000     0.96301    0.00000     0.96301
      H   14    0.03660      0.00000     0.96340    0.00000     0.96340
      H   15    0.02145      0.00000     0.97855    0.00000     0.97855
      H   16    0.02336      0.00000     0.97664    0.00000     0.97664
      H   17    0.03004      0.00000     0.96996    0.00000     0.96996
      H   18    0.02851      0.00000     0.97149    0.00000     0.97149
      H   19    0.01294      0.00000     0.98706    0.00000     0.98706
      H   20    0.02648      0.00000     0.97352    0.00000     0.97352
      H   21    0.03132      0.00000     0.96868    0.00000     0.96868
      H   22    0.03354      0.00000     0.96646    0.00000     0.96646
      H   23    0.02742      0.00000     0.97258    0.00000     0.97258
      H   24    0.18798      0.00000     0.81202    0.00000     0.81202
      H   25    0.02633      0.00000     0.97367    0.00000     0.97367
      H   26    0.03657      0.00000     0.96343    0.00000     0.96343
      H   27    0.03382      0.00000     0.96618    0.00000     0.96618
      H   28    0.03739      0.00000     0.96261    0.00000     0.96261
      H   29    0.03370      0.00000     0.96630    0.00000     0.96630
      H   30    0.04255      0.00000     0.95745    0.00000     0.95745
      H   31    0.03740      0.00000     0.96260    0.00000     0.96260
 =======================================================================
   * Total *    0.00000     21.99956    66.00044    0.00000    88.00000

                                 Natural Population      
 --------------------------------------------------------
   Core                      21.99956 ( 99.9980% of  22)
   Valence                   66.00044 (100.0007% of  66)
   Natural Minimal Basis     88.00000 (100.0000% of  88)
   Natural Rydberg Basis      0.00000 (  0.0000% of  88)
 --------------------------------------------------------

    Atom  No          Natural Electron Configuration
 ----------------------------------------------------------------------------
      C    1      [core]2S( 1.08)2p( 3.05)
      C    2      [core]2S( 1.08)2p( 2.91)
      C    3      [core]2S( 1.09)2p( 2.77)
      C    4      [core]2S( 1.09)2p( 2.98)
      C    5      [core]2S( 1.10)2p( 2.92)
      C    6      [core]2S( 1.08)2p( 2.98)
      C    7      [core]2S( 1.10)2p( 2.99)
      O    8      [core]2S( 1.75)2p( 4.58)
      C    9      [core]2S( 1.08)2p( 2.89)
      C   10      [core]2S( 1.08)2p( 3.05)
      C   11      [core]2S( 1.08)2p( 3.05)
      H   12            1S( 0.96)
      H   13            1S( 0.96)
      H   14            1S( 0.96)
      H   15            1S( 0.98)
      H   16            1S( 0.98)
      H   17            1S( 0.97)
      H   18            1S( 0.97)
      H   19            1S( 0.99)
      H   20            1S( 0.97)
      H   21            1S( 0.97)
      H   22            1S( 0.97)
      H   23            1S( 0.97)
      H   24            1S( 0.81)
      H   25            1S( 0.97)
      H   26            1S( 0.96)
      H   27            1S( 0.97)
      H   28            1S( 0.96)
      H   29            1S( 0.97)
      H   30            1S( 0.96)
      H   31            1S( 0.96)


 NATURAL BOND ORBITAL ANALYSIS:

                       Occupancies       Lewis Structure    Low   High
           Occ.    -------------------  -----------------   occ   occ
  Cycle   Thresh.   Lewis   Non-Lewis     CR  BD  3C  LP    (L)   (NL)   Dev
 =============================================================================
   1(1)    1.90    87.64111   0.35889     11  31   0   2     0      0    0.02
 -----------------------------------------------------------------------------

 Structure accepted: No low occupancy Lewis orbitals

 --------------------------------------------------------
   Core                     21.99955 ( 99.998% of  22)
   Valence Lewis            65.64155 ( 99.457% of  66)
  ==================       ============================
   Total Lewis              87.64111 ( 99.592% of  88)
  -----------------------------------------------------
   Valence non-Lewis         0.35889 (  0.408% of  88)
   Rydberg non-Lewis         0.00000 (  0.000% of  88)
  ==================       ============================
   Total non-Lewis           0.35889 (  0.408% of  88)
 --------------------------------------------------------


       (Occupancy)   Bond orbital/ Coefficients/ Hybrids
 ---------------------------------------------------------------------------------
     1. (1.98931) BD ( 1) C   1 - C   2  
                ( 50.77%)   0.7125* C   1 s( 25.73%)p 2.89( 74.27%)
                                            0.0001  0.5073  0.8459  0.0256 -0.1625
                ( 49.23%)   0.7016* C   2 s( 25.31%)p 2.95( 74.69%)
                                            0.0000  0.5031 -0.8430 -0.0170  0.1896
     2. (1.99526) BD ( 1) C   1 - H  12  
                ( 51.87%)   0.7202* C   1 s( 24.82%)p 3.03( 75.18%)
                                            0.0000  0.4982 -0.1447  0.1942  0.8325
                ( 48.13%)   0.6938* H  12 s(100.00%)
                                            1.0000
     3. (1.99500) BD ( 1) C   1 - H  13  
                ( 51.86%)   0.7201* C   1 s( 24.75%)p 3.04( 75.25%)
                                            0.0000  0.4975 -0.4123  0.5738 -0.5032
                ( 48.14%)   0.6938* H  13 s(100.00%)
                                            1.0000
     4. (1.99495) BD ( 1) C   1 - H  14  
                ( 51.84%)   0.7200* C   1 s( 24.70%)p 3.05( 75.30%)
                                            0.0000  0.4970 -0.3057 -0.7952 -0.1650
                ( 48.16%)   0.6940* H  14 s(100.00%)
                                            1.0000
     5. (1.98604) BD ( 1) C   2 - C   6  
                ( 49.66%)   0.7047* C   2 s( 25.17%)p 2.97( 74.83%)
                                            0.0000  0.5017  0.4232 -0.5653  0.4996
                ( 50.34%)   0.7095* C   6 s( 25.39%)p 2.94( 74.61%)
                                            0.0001  0.5039 -0.4266  0.5690 -0.4902
     6. (1.98408) BD ( 1) C   2 - C   7  
                ( 49.46%)   0.7033* C   2 s( 25.07%)p 2.99( 74.93%)
                                            0.0000  0.5007  0.3127  0.7961  0.1332
                ( 50.54%)   0.7109* C   7 s( 25.65%)p 2.90( 74.35%)
                                            0.0001  0.5064 -0.2942 -0.8048 -0.0967
     7. (1.98546) BD ( 1) C   2 - H  15  
                ( 51.01%)   0.7142* C   2 s( 24.45%)p 3.09( 75.55%)
                                            0.0000  0.4945  0.1117 -0.2152 -0.8347
                ( 48.99%)   0.6999* H  15 s(100.00%)
                                            1.0000
     8. (1.98355) BD ( 1) C   3 - C   5  
                ( 49.94%)   0.7067* C   3 s( 25.63%)p 2.90( 74.37%)
                                            0.0001  0.5063  0.4346 -0.6561 -0.3526
                ( 50.06%)   0.7075* C   5 s( 25.08%)p 2.99( 74.92%)
                                            0.0000  0.5008 -0.4045  0.6678  0.3738
     9. (1.98664) BD ( 1) C   3 - C   7  
                ( 49.34%)   0.7024* C   3 s( 25.59%)p 2.91( 74.41%)
                                            0.0000  0.5058 -0.8313 -0.0383 -0.2270
                ( 50.66%)   0.7118* C   7 s( 25.34%)p 2.95( 74.66%)
                                            0.0000  0.5034  0.8433 -0.0140  0.1877
    10. (1.98771) BD ( 1) C   3 - O   8  
                ( 41.10%)   0.6411* C   3 s( 22.60%)p 3.42( 77.40%)
                                            0.0000  0.4754  0.3374  0.7536 -0.3037
                ( 58.90%)   0.7674* O   8 s( 16.58%)p 5.03( 83.42%)
                                            0.0000  0.4072 -0.3523 -0.8155  0.2122
    11. (1.98677) BD ( 1) C   3 - H  16  
                ( 51.30%)   0.7162* C   3 s( 26.18%)p 2.82( 73.82%)
                                            0.0000  0.5117  0.0783 -0.0130  0.8555
                ( 48.70%)   0.6978* H  16 s(100.00%)
                                            1.0000
    12. (1.98419) BD ( 1) C   4 - C   5  
                ( 50.32%)   0.7094* C   4 s( 25.57%)p 2.91( 74.43%)
                                            0.0001  0.5057  0.3033  0.7608 -0.2710
                ( 49.68%)   0.7048* C   5 s( 25.41%)p 2.94( 74.59%)
                                            0.0000  0.5041 -0.3004 -0.7418  0.3247
    13. (1.98882) BD ( 1) C   4 - C   6  
                ( 50.06%)   0.7075* C   4 s( 25.37%)p 2.94( 74.63%)
                                            0.0000  0.5036 -0.8379  0.0699  0.1983
                ( 49.94%)   0.7067* C   6 s( 25.10%)p 2.98( 74.90%)
                                            0.0000  0.5010  0.8347 -0.0143 -0.2280
    14. (1.99018) BD ( 1) C   4 - H  17  
                ( 51.51%)   0.7177* C   4 s( 24.74%)p 3.04( 75.26%)
                                            0.0000  0.4974  0.4430 -0.2580  0.6998
                ( 48.49%)   0.6963* H  17 s(100.00%)
                                            1.0000
    15. (1.99165) BD ( 1) C   4 - H  18  
                ( 51.42%)   0.7171* C   4 s( 24.32%)p 3.11( 75.68%)
                                            0.0000  0.4932  0.0979 -0.5914 -0.6305
                ( 48.58%)   0.6970* H  18 s(100.00%)
                                            1.0000
    16. (1.97895) BD ( 1) C   5 - C   9  
                ( 50.36%)   0.7097* C   5 s( 25.75%)p 2.88( 74.25%)
                                            0.0001  0.5075  0.8492  0.0592  0.1333
                ( 49.64%)   0.7045* C   9 s( 25.30%)p 2.95( 74.70%)
                                            0.0001  0.5030 -0.8588 -0.0876 -0.0426
    17. (1.98409) BD ( 1) C   5 - H  19  
                ( 50.55%)   0.7110* C   5 s( 23.76%)p 3.21( 76.24%)
                                            0.0000  0.4874 -0.1579  0.0194 -0.8585
                ( 49.45%)   0.7032* H  19 s(100.00%)
                                            1.0000
    18. (1.99143) BD ( 1) C   6 - H  20  
                ( 51.35%)   0.7166* C   6 s( 24.42%)p 3.09( 75.58%)
                                            0.0000  0.4942 -0.0646  0.2333  0.8350
                ( 48.65%)   0.6975* H  20 s(100.00%)
                                            1.0000
    19. (1.99020) BD ( 1) C   6 - H  21  
                ( 51.54%)   0.7179* C   6 s( 25.08%)p 2.99( 74.92%)
                                            0.0000  0.5008 -0.3421 -0.7884 -0.1026
                ( 48.46%)   0.6961* H  21 s(100.00%)
                                            1.0000
    20. (1.99113) BD ( 1) C   7 - H  22  
                ( 51.69%)   0.7189* C   7 s( 24.49%)p 3.08( 75.51%)
                                            0.0000  0.4948 -0.4322  0.3920  0.6440
                ( 48.31%)   0.6951* H  22 s(100.00%)
                                            1.0000
    21. (1.98918) BD ( 1) C   7 - H  23  
                ( 51.33%)   0.7164* C   7 s( 24.53%)p 3.08( 75.47%)
                                            0.0000  0.4952 -0.1245  0.4455 -0.7353
                ( 48.67%)   0.6977* H  23 s(100.00%)
                                            1.0000
    22. (1.98909) BD ( 1) O   8 - H  24  
                ( 59.43%)   0.7709* O   8 s( 16.74%)p 4.97( 83.26%)
                                            0.0000 -0.4092  0.0402  0.0155  0.9114
                ( 40.57%)   0.6369* H  24 s(100.00%)
                                           -1.0000
    23. (1.98884) BD ( 1) C   9 - C  10  
                ( 48.99%)   0.6999* C   9 s( 25.04%)p 2.99( 74.96%)
                                            0.0000  0.5004  0.3811 -0.6800 -0.3767
                ( 51.01%)   0.7142* C  10 s( 25.73%)p 2.89( 74.27%)
                                            0.0001  0.5073 -0.4128  0.6478  0.3906
    24. (1.99023) BD ( 1) C   9 - C  11  
                ( 49.13%)   0.7009* C   9 s( 25.29%)p 2.95( 74.71%)
                                            0.0000  0.5029  0.2482  0.0514  0.8264
                ( 50.87%)   0.7132* C  11 s( 25.85%)p 2.87( 74.15%)
                                            0.0001  0.5084 -0.2870 -0.0778 -0.8081
    25. (1.98406) BD ( 1) C   9 - H  25  
                ( 51.21%)   0.7156* C   9 s( 24.37%)p 3.10( 75.63%)
                                            0.0000  0.4937  0.2358  0.7262 -0.4164
                ( 48.79%)   0.6985* H  25 s(100.00%)
                                            1.0000
    26. (1.99567) BD ( 1) C  10 - H  26  
                ( 51.89%)   0.7203* C  10 s( 24.88%)p 3.02( 75.12%)
                                            0.0000  0.4988 -0.1550 -0.7424  0.4196
                ( 48.11%)   0.6936* H  26 s(100.00%)
                                            1.0000
    27. (1.99509) BD ( 1) C  10 - H  27  
                ( 51.71%)   0.7191* C  10 s( 24.69%)p 3.05( 75.31%)
                                            0.0000  0.4969 -0.2769 -0.0715 -0.8194
                ( 48.29%)   0.6949* H  27 s(100.00%)
                                            1.0000
    28. (1.99469) BD ( 1) C  10 - H  28  
                ( 51.87%)   0.7202* C  10 s( 24.70%)p 3.05( 75.30%)
                                            0.0000  0.4970  0.8537  0.1553 -0.0006
                ( 48.13%)   0.6938* H  28 s(100.00%)
                                            1.0000
    29. (1.99468) BD ( 1) C  11 - H  29  
                ( 51.73%)   0.7192* C  11 s( 24.83%)p 3.03( 75.17%)
                                            0.0000  0.4983 -0.2161 -0.7037  0.4580
                ( 48.27%)   0.6948* H  29 s(100.00%)
                                            1.0000
    30. (1.99478) BD ( 1) C  11 - H  30  
                ( 52.15%)   0.7221* C  11 s( 24.80%)p 3.03( 75.20%)
                                            0.0000  0.4980 -0.3506  0.7014  0.3704
                ( 47.85%)   0.6917* H  30 s(100.00%)
                                            1.0000
    31. (1.99421) BD ( 1) C  11 - H  31  
                ( 51.85%)   0.7201* C  11 s( 24.51%)p 3.08( 75.49%)
                                            0.0000  0.4951  0.8649  0.0827 -0.0037
                ( 48.15%)   0.6939* H  31 s(100.00%)
                                            1.0000
    32. (1.99997) CR ( 1) C   1           s(100.00%)
                                            1.0000  0.0000 -0.0001  0.0000  0.0000
    33. (1.99997) CR ( 1) C   2           s(100.00%)
                                            1.0000  0.0000  0.0000  0.0000  0.0000
    34. (1.99989) CR ( 1) C   3           s(100.00%)
                                            1.0000  0.0000  0.0000  0.0001  0.0001
    35. (1.99995) CR ( 1) C   4           s(100.00%)
                                            1.0000 -0.0001  0.0000 -0.0001  0.0000
    36. (1.99996) CR ( 1) C   5           s(100.00%)
                                            1.0000  0.0000  0.0000  0.0000  0.0000
    37. (1.99996) CR ( 1) C   6           s(100.00%)
                                            1.0000  0.0000  0.0000 -0.0001  0.0000
    38. (1.99996) CR ( 1) C   7           s(100.00%)
                                            1.0000  0.0000  0.0000  0.0001  0.0000
    39. (1.99999) CR ( 1) O   8           s(100.00%)
                                            1.0000  0.0000  0.0000  0.0000  0.0000
    40. (1.99996) CR ( 1) C   9           s(100.00%)
                                            1.0000  0.0000  0.0001  0.0000  0.0000
    41. (1.99997) CR ( 1) C  10           s(100.00%)
                                            1.0000  0.0000  0.0001 -0.0001  0.0000
    42. (1.99997) CR ( 1) C  11           s(100.00%)
                                            1.0000  0.0000  0.0001  0.0000  0.0001
    43. (1.99351) LP ( 1) O   8           s( 66.62%)p 0.50( 33.38%)
                                            0.0000  0.8162  0.2235  0.4019  0.3498
    44. (1.97209) LP ( 2) O   8           s(  0.06%)p99.99( 99.94%)
                                            0.0000  0.0248 -0.9079  0.4161  0.0441
    45. (0.00980) BD*( 1) C   1 - C   2  
                ( 49.23%)   0.7016* C   1 s( 25.73%)p 2.89( 74.27%)
                                           -0.0001 -0.5073 -0.8459 -0.0256  0.1625
                ( 50.77%)  -0.7125* C   2 s( 25.31%)p 2.95( 74.69%)
                                            0.0000 -0.5031  0.8430  0.0170 -0.1896
    46. (0.00588) BD*( 1) C   1 - H  12  
                ( 48.13%)   0.6938* C   1 s( 24.82%)p 3.03( 75.18%)
                                            0.0000 -0.4982  0.1447 -0.1942 -0.8325
                ( 51.87%)  -0.7202* H  12 s(100.00%)
                                           -1.0000
    47. (0.00500) BD*( 1) C   1 - H  13  
                ( 48.14%)   0.6938* C   1 s( 24.75%)p 3.04( 75.25%)
                                            0.0000 -0.4975  0.4123 -0.5738  0.5032
                ( 51.86%)  -0.7201* H  13 s(100.00%)
                                           -1.0000
    48. (0.00518) BD*( 1) C   1 - H  14  
                ( 48.16%)   0.6940* C   1 s( 24.70%)p 3.05( 75.30%)
                                            0.0000 -0.4970  0.3057  0.7952  0.1650
                ( 51.84%)  -0.7200* H  14 s(100.00%)
                                           -1.0000
    49. (0.01552) BD*( 1) C   2 - C   6  
                ( 50.34%)   0.7095* C   2 s( 25.17%)p 2.97( 74.83%)
                                            0.0000  0.5017  0.4232 -0.5653  0.4996
                ( 49.66%)  -0.7047* C   6 s( 25.39%)p 2.94( 74.61%)
                                            0.0001  0.5039 -0.4266  0.5690 -0.4902
    50. (0.01603) BD*( 1) C   2 - C   7  
                ( 50.54%)   0.7109* C   2 s( 25.07%)p 2.99( 74.93%)
                                            0.0000  0.5007  0.3127  0.7961  0.1332
                ( 49.46%)  -0.7033* C   7 s( 25.65%)p 2.90( 74.35%)
                                            0.0001  0.5064 -0.2942 -0.8048 -0.0967
    51. (0.01140) BD*( 1) C   2 - H  15  
                ( 48.99%)   0.6999* C   2 s( 24.45%)p 3.09( 75.55%)
                                            0.0000 -0.4945 -0.1117  0.2152  0.8347
                ( 51.01%)  -0.7142* H  15 s(100.00%)
                                           -1.0000
    52. (0.03334) BD*( 1) C   3 - C   5  
                ( 50.06%)   0.7075* C   3 s( 25.63%)p 2.90( 74.37%)
                                            0.0001  0.5063  0.4346 -0.6561 -0.3526
                ( 49.94%)  -0.7067* C   5 s( 25.08%)p 2.99( 74.92%)
                                            0.0000  0.5008 -0.4045  0.6678  0.3738
    53. (0.02786) BD*( 1) C   3 - C   7  
                ( 50.66%)   0.7118* C   3 s( 25.59%)p 2.91( 74.41%)
                                            0.0000  0.5058 -0.8313 -0.0383 -0.2270
                ( 49.34%)  -0.7024* C   7 s( 25.34%)p 2.95( 74.66%)
                                            0.0000  0.5034  0.8433 -0.0140  0.1877
    54. (0.02172) BD*( 1) C   3 - O   8  
                ( 58.90%)   0.7674* C   3 s( 22.60%)p 3.42( 77.40%)
                                            0.0000  0.4754  0.3374  0.7536 -0.3037
                ( 41.10%)  -0.6411* O   8 s( 16.58%)p 5.03( 83.42%)
                                            0.0000  0.4072 -0.3523 -0.8155  0.2122
    55. (0.01772) BD*( 1) C   3 - H  16  
                ( 48.70%)   0.6978* C   3 s( 26.18%)p 2.82( 73.82%)
                                            0.0000 -0.5117 -0.0783  0.0130 -0.8555
                ( 51.30%)  -0.7162* H  16 s(100.00%)
                                           -1.0000
    56. (0.01692) BD*( 1) C   4 - C   5  
                ( 49.68%)   0.7048* C   4 s( 25.57%)p 2.91( 74.43%)
                                           -0.0001 -0.5057 -0.3033 -0.7608  0.2710
                ( 50.32%)  -0.7094* C   5 s( 25.41%)p 2.94( 74.59%)
                                            0.0000 -0.5041  0.3004  0.7418 -0.3247
    57. (0.01188) BD*( 1) C   4 - C   6  
                ( 49.94%)   0.7067* C   4 s( 25.37%)p 2.94( 74.63%)
                                            0.0000 -0.5036  0.8379 -0.0699 -0.1983
                ( 50.06%)  -0.7075* C   6 s( 25.10%)p 2.98( 74.90%)
                                            0.0000 -0.5010 -0.8347  0.0143  0.2280
    58. (0.00962) BD*( 1) C   4 - H  17  
                ( 48.49%)   0.6963* C   4 s( 24.74%)p 3.04( 75.26%)
                                            0.0000 -0.4974 -0.4430  0.2580 -0.6998
                ( 51.51%)  -0.7177* H  17 s(100.00%)
                                           -1.0000
    59. (0.00755) BD*( 1) C   4 - H  18  
                ( 48.58%)   0.6970* C   4 s( 24.32%)p 3.11( 75.68%)
                                            0.0000 -0.4932 -0.0979  0.5914  0.6305
                ( 51.42%)  -0.7171* H  18 s(100.00%)
                                           -1.0000
    60. (0.02226) BD*( 1) C   5 - C   9  
                ( 49.64%)   0.7045* C   5 s( 25.75%)p 2.88( 74.25%)
                                           -0.0001 -0.5075 -0.8492 -0.0592 -0.1333
                ( 50.36%)  -0.7097* C   9 s( 25.30%)p 2.95( 74.70%)
                                           -0.0001 -0.5030  0.8588  0.0876  0.0426
    61. (0.01176) BD*( 1) C   5 - H  19  
                ( 49.45%)   0.7032* C   5 s( 23.76%)p 3.21( 76.24%)
                                            0.0000 -0.4874  0.1579 -0.0194  0.8585
                ( 50.55%)  -0.7110* H  19 s(100.00%)
                                           -1.0000
    62. (0.00925) BD*( 1) C   6 - H  20  
                ( 48.65%)   0.6975* C   6 s( 24.42%)p 3.09( 75.58%)
                                            0.0000 -0.4942  0.0646 -0.2333 -0.8350
                ( 51.35%)  -0.7166* H  20 s(100.00%)
                                           -1.0000
    63. (0.00828) BD*( 1) C   6 - H  21  
                ( 48.46%)   0.6961* C   6 s( 25.08%)p 2.99( 74.92%)
                                            0.0000 -0.5008  0.3421  0.7884  0.1026
                ( 51.54%)  -0.7179* H  21 s(100.00%)
                                           -1.0000
    64. (0.00862) BD*( 1) C   7 - H  22  
                ( 48.31%)   0.6951* C   7 s( 24.49%)p 3.08( 75.51%)
                                            0.0000 -0.4948  0.4322 -0.3920 -0.6440
                ( 51.69%)  -0.7189* H  22 s(100.00%)
                                           -1.0000
    65. (0.00860) BD*( 1) C   7 - H  23  
                ( 48.67%)   0.6977* C   7 s( 24.53%)p 3.08( 75.47%)
                                            0.0000 -0.4952  0.1245 -0.4455  0.7353
                ( 51.33%)  -0.7164* H  23 s(100.00%)
                                           -1.0000
    66. (0.00860) BD*( 1) O   8 - H  24  
                ( 40.57%)   0.6369* O   8 s( 16.74%)p 4.97( 83.26%)
                                            0.0000  0.4092 -0.0402 -0.0155 -0.9114
                ( 59.43%)  -0.7709* H  24 s(100.00%)
                                            1.0000
    67. (0.01029) BD*( 1) C   9 - C  10  
                ( 51.01%)   0.7142* C   9 s( 25.04%)p 2.99( 74.96%)
                                            0.0000  0.5004  0.3811 -0.6800 -0.3767
                ( 48.99%)  -0.6999* C  10 s( 25.73%)p 2.89( 74.27%)
                                            0.0001  0.5073 -0.4128  0.6478  0.3906
    68. (0.01094) BD*( 1) C   9 - C  11  
                ( 50.87%)   0.7132* C   9 s( 25.29%)p 2.95( 74.71%)
                                            0.0000  0.5029  0.2482  0.0514  0.8264
                ( 49.13%)  -0.7009* C  11 s( 25.85%)p 2.87( 74.15%)
                                            0.0001  0.5084 -0.2870 -0.0778 -0.8081
    69. (0.01113) BD*( 1) C   9 - H  25  
                ( 48.79%)   0.6985* C   9 s( 24.37%)p 3.10( 75.63%)
                                            0.0000 -0.4937 -0.2358 -0.7262  0.4164
                ( 51.21%)  -0.7156* H  25 s(100.00%)
                                           -1.0000
    70. (0.00636) BD*( 1) C  10 - H  26  
                ( 48.11%)   0.6936* C  10 s( 24.88%)p 3.02( 75.12%)
                                            0.0000 -0.4988  0.1550  0.7424 -0.4196
                ( 51.89%)  -0.7203* H  26 s(100.00%)
                                           -1.0000
    71. (0.00535) BD*( 1) C  10 - H  27  
                ( 48.29%)   0.6949* C  10 s( 24.69%)p 3.05( 75.31%)
                                            0.0000 -0.4969  0.2769  0.0715  0.8194
                ( 51.71%)  -0.7191* H  27 s(100.00%)
                                           -1.0000
    72. (0.00484) BD*( 1) C  10 - H  28  
                ( 48.13%)   0.6938* C  10 s( 24.70%)p 3.05( 75.30%)
                                            0.0000 -0.4970 -0.8537 -0.1553  0.0006
[...]
   22      22.1460        9.3490      12.7970         7.7029      14.4431
   39     271.1783       -0.0064     271.1846        -0.0027     271.1809
   43      32.5820        1.5279      31.0541        -4.8583      37.4404
   44       4.3329      -33.9985      38.3315       -35.5342      39.8671
 Sum      349.5035      -22.0735     371.5769       -28.7886     378.2921

 Contributions to Isotropic shielding for atom    9 (   214.7038 ppm):
                         Standard Origin              Atomic Origin
 NLMO      Total    Paramagnetic  Diamagnetic   Paramagnetic  Diamagnetic
   10      -0.0269       -0.3151       0.2882        -1.2274       1.2005
   16       5.9205       -9.3336      15.2541        -1.6794       7.5999
   17       0.3988       -0.0279       0.4267        -0.6075       1.0062
   23      -1.3525       -4.2996       2.9471        -8.8337       7.4813
   24      -1.0407       -6.3032       5.2624        -8.6106       7.5699
   25       6.2244       -1.3118       7.5361        -4.7231      10.9474
   26       1.0333       -0.3137       1.3470         0.0081       1.0252
   27       0.6789       -0.6915       1.3704        -0.3642       1.0431
   28       0.6552       -0.3150       0.9701        -0.3776       1.0328
   29       0.9518       -0.2572       1.2090        -0.0788       1.0306
   30       0.6148       -0.6055       1.2204        -0.4044       1.0192
   31       0.6115       -0.2196       0.8311        -0.4220       1.0336
   40     199.9253       -0.0016     199.9270         0.0024     199.9229
 Sum      214.5943      -23.9954     238.5897       -27.3183     241.9126

 Contributions to Isotropic shielding for atom   10 (   221.6311 ppm):
                         Standard Origin              Atomic Origin
 NLMO      Total    Paramagnetic  Diamagnetic   Paramagnetic  Diamagnetic
   23       4.4741      -11.3544      15.8284        -3.5158       7.9899
   24      -0.5369        0.0611      -0.5980        -1.2195       0.6826
   25       0.3310        0.1280       0.2030        -0.7016       1.0325
   26       6.2141       -4.1476      10.3616        -4.9423      11.1564
   27       5.9282       -4.3355      10.2637        -5.1392      11.0674
   28       4.9317        2.8647       2.0670        -6.1915      11.1232
   31      -0.0956       -0.5431       0.4474        -1.0159       0.9203
   41     200.0745       -0.0036     200.0781         0.0022     200.0724
 Sum      221.3210      -17.3303     238.6513       -22.7237     244.0447

 Contributions to Isotropic shielding for atom   11 (   224.7277 ppm):
                         Standard Origin              Atomic Origin
 NLMO      Total    Paramagnetic  Diamagnetic   Paramagnetic  Diamagnetic
   10       0.0396       -0.1323       0.1720        -1.0133       1.0529
   23      -0.4255        0.0895      -0.5149        -1.0855       0.6600
   24       4.4736       -9.3268      13.8004        -3.4553       7.9290
   25       0.3462       -0.0282       0.3744        -0.6740       1.0202
   29       6.8445       -4.0361      10.8806        -4.2491      11.0935
   30       6.7996       -4.9715      11.7710        -4.4243      11.2239
   31       6.0085        3.8647       2.1438        -5.0925      11.1011
   42     200.0730       -0.0028     200.0757         0.0017     200.0712
 Sum      224.1595      -14.5435     238.7030       -19.9923     244.1518

 Contributions to Isotropic shielding for atom   12 (    32.6750 ppm):
                         Standard Origin              Atomic Origin
 NLMO      Total    Paramagnetic  Diamagnetic   Paramagnetic  Diamagnetic
    1       1.6554       -1.2505       2.9059         0.7802       0.8752
    2      26.3332        0.2781      26.0551         0.4424      25.8908
    3       1.9696        1.7978       0.1718         0.1443       1.8253
    4       1.9211        1.8364       0.0847         0.0933       1.8278
 Sum       31.8794        2.6618      29.2176         1.4603      30.4191

 Contributions to Isotropic shielding for atom   13 (    32.4050 ppm):
                         Standard Origin              Atomic Origin
 NLMO      Total    Paramagnetic  Diamagnetic   Paramagnetic  Diamagnetic
    1       1.4490       -0.7434       2.1923         0.4609       0.9881
    2       1.9205        1.5958       0.3247         0.0847       1.8358
    3      26.3238        0.1559      26.1679         0.4215      25.9022
    4       1.8660        2.2202      -0.3542         0.0316       1.8344
    6      -0.1315        0.7382      -0.8697        -1.0531       0.9216
 Sum       31.4277        3.9667      27.4610        -0.0543      31.4821

 Contributions to Isotropic shielding for atom   14 (    32.5224 ppm):
                         Standard Origin              Atomic Origin
 NLMO      Total    Paramagnetic  Diamagnetic   Paramagnetic  Diamagnetic
    1       1.4537       -0.6516       2.1053         0.4646       0.9891
    2       1.8995        1.6464       0.2531         0.0566       1.8430
    3       1.9351        2.2580      -0.3229         0.0929       1.8422
    4      26.3644        0.1637      26.2007         0.4523      25.9122
    5      -0.1416        0.7601      -0.9017        -1.0195       0.8778
 Sum       31.5112        4.1766      27.3345         0.0469      31.4642

 Contributions to Isotropic shielding for atom   15 (    32.7440 ppm):
                         Standard Origin              Atomic Origin
 NLMO      Total    Paramagnetic  Diamagnetic   Paramagnetic  Diamagnetic
    1       0.7949        2.1527      -1.3578        -0.1863       0.9812
    3       0.2608       -0.9703       1.2311        -0.6999       0.9607
    4       0.2609       -0.9879       1.2488        -0.7092       0.9701
    5       1.4735        0.2305       1.2430         0.5889       0.8846
    6       1.5563        0.1796       1.3767         0.6549       0.9014
    7      26.4701        0.0280      26.4421         0.3570      26.1130
   21      -0.0421       -0.3488       0.3067        -1.1629       1.1208
 Sum       30.7744        0.2838      30.4906        -1.1574      31.9318

 Contributions to Isotropic shielding for atom   16 (    31.5124 ppm):
                         Standard Origin              Atomic Origin
 NLMO      Total    Paramagnetic  Diamagnetic   Paramagnetic  Diamagnetic
    8       1.0822       -0.1061       1.1883         0.1659       0.9163
   10       0.9587        0.6886       0.2701        -1.0784       2.0371
   11      26.2816        0.4370      25.8447         0.6880      25.5936
   20      -0.0239       -0.8444       0.8206        -1.1558       1.1319
   24       0.0311       -0.7106       0.7417        -0.9766       1.0077
   30      -0.3385       -1.3667       1.0282        -0.9300       0.5915
 Sum       27.9913       -1.9022      29.8935        -3.2869      31.2781

 Contributions to Isotropic shielding for atom   17 (    32.5715 ppm):
                         Standard Origin              Atomic Origin
 NLMO      Total    Paramagnetic  Diamagnetic   Paramagnetic  Diamagnetic
   12       1.3188        0.2898       1.0290         0.4110       0.9078
   13       1.0674        1.0070       0.0605        -0.0406       1.1080
   14      26.3911        0.0638      26.3273         0.4261      25.9650
   15       2.0997        1.5537       0.5460         0.3353       1.7644
   16      -0.1962       -0.0459      -0.1503        -1.1117       0.9155
   18       0.0103       -0.6558       0.6661        -1.1275       1.1378
   26      -0.2199       -1.2434       1.0235        -0.8108       0.5908
   29      -0.3642       -1.4514       1.0872        -0.8757       0.5115
 Sum       30.1070       -0.4823      30.5893        -2.7938      32.9008

 Contributions to Isotropic shielding for atom   18 (    32.4619 ppm):
                         Standard Origin              Atomic Origin
 NLMO      Total    Paramagnetic  Diamagnetic   Paramagnetic  Diamagnetic
   12       1.2753        0.4207       0.8546         0.1982       1.0771
   13       1.0639        1.2034      -0.1395         0.0306       1.0333
   14       2.0997        1.4728       0.6269         0.3113       1.7884
   15      26.4171       -0.0266      26.4438         0.4091      26.0080
   17      -0.0335       -0.1893       0.1558        -1.0771       1.0435
   19      -0.0225       -0.6559       0.6334        -1.1190       1.0964
   26      -0.1786       -1.1625       0.9839        -0.9349       0.7563
 Sum       30.6214        1.0625      29.5588        -2.1817      32.8030

 Contributions to Isotropic shielding for atom   19 (    33.0425 ppm):
                         Standard Origin              Atomic Origin
 NLMO      Total    Paramagnetic  Diamagnetic   Paramagnetic  Diamagnetic
    8       1.2971        0.7119       0.5852         0.4146       0.8825
   12       1.2340        0.6560       0.5779         0.2222       1.0117
   15      -0.0076       -0.6406       0.6330        -1.0975       1.0899
   16       1.0779        1.2127      -0.1348        -0.1267       1.2046
   17      26.6692       -0.0033      26.6726         0.3726      26.2966
   22      -0.0610       -1.0265       0.9655        -0.7473       0.6863
   27      -0.1309       -1.4360       1.3051        -1.0092       0.8783
 Sum       30.0786       -0.5259      30.6045        -1.9713      32.0500

 Contributions to Isotropic shielding for atom   20 (    32.7933 ppm):
                         Standard Origin              Atomic Origin
 NLMO      Total    Paramagnetic  Diamagnetic   Paramagnetic  Diamagnetic
    2      -0.0391       -1.3117       1.2726        -0.9204       0.8813
    5       1.1920        0.6024       0.5896         0.3330       0.8589
   13       1.3906       -0.0273       1.4179         0.4515       0.9390
   14      -0.0495       -0.2293       0.1798        -1.1739       1.1245
   18      26.4545        0.1414      26.3130         0.4132      26.0413
   19       1.9579        1.8461       0.1118         0.1758       1.7822
 Sum       30.9064        1.0217      29.8847        -0.7208      31.6272

 Contributions to Isotropic shielding for atom   21 (    32.5131 ppm):
                         Standard Origin              Atomic Origin
 NLMO      Total    Paramagnetic  Diamagnetic   Paramagnetic  Diamagnetic
    1      -0.0871        0.0572      -0.1443        -1.0022       0.9151
    4      -0.0742       -1.4547       1.3805        -0.9664       0.8922
    5       0.9959        1.2547      -0.2588         0.1281       0.8678
   13       1.2293        0.7211       0.5082         0.2283       1.0010
   15      -0.0046        0.0395      -0.0441        -1.1429       1.1383
   18       2.0661        1.6040       0.4622         0.3086       1.7575
   19      26.4158       -0.0237      26.4395         0.4885      25.9273
 Sum       30.5412        2.1980      28.3432        -1.9580      32.4992

 Contributions to Isotropic shielding for atom   22 (    32.0741 ppm):
                         Standard Origin              Atomic Origin
 NLMO      Total    Paramagnetic  Diamagnetic   Paramagnetic  Diamagnetic
    1      -0.1548       -0.3191       0.1642        -1.2209       1.0661
    2      -0.0018       -1.2850       1.2832        -0.9447       0.9430
    6       0.9908        1.0904      -0.0997         0.1116       0.8791
    9       1.2215        0.4231       0.7984         0.1837       1.0378
   10      -0.0284        0.2024      -0.2307        -1.1233       1.0949
   11      -0.0920       -0.0941       0.0021        -1.2608       1.1688
   20      26.3100       -0.0376      26.3475         0.4710      25.8389
   21       1.9271        1.7315       0.1956         0.0593       1.8678
 Sum       30.1723        1.7116      28.4607        -3.7241      33.8964

 Contributions to Isotropic shielding for atom   23 (    32.6580 ppm):
                         Standard Origin              Atomic Origin
 NLMO      Total    Paramagnetic  Diamagnetic   Paramagnetic  Diamagnetic
    3      -0.0657       -1.2797       1.2140        -0.9144       0.8487
    6       1.0072        0.8616       0.1456        -0.0244       1.0316
    7       0.0228       -0.4393       0.4621        -1.0280       1.0509
    9       1.3880        0.3655       1.0225         0.5454       0.8426
   10      -0.2316        0.0981      -0.3297        -1.5832       1.3516
   20       1.9698        1.8307       0.1391         0.1349       1.8349
   21      26.4614        0.0795      26.3819         0.4554      26.0060
 Sum       30.5519        1.5164      29.0355        -2.4143      32.9662

 Contributions to Isotropic shielding for atom   24 (    35.4031 ppm):
                         Standard Origin              Atomic Origin
 NLMO      Total    Paramagnetic  Diamagnetic   Paramagnetic  Diamagnetic
   10       1.9927        1.3045       0.6882         1.3719       0.6208
   21      -0.1565       -0.7790       0.6226        -1.0556       0.8991
   22      23.0005       -0.3151      23.3156        -0.1882      23.1887
   43       3.8542        1.6113       2.2429         1.9120       1.9422
   44       5.5833        2.5303       3.0529         2.4382       3.1450
 Sum       34.2743        4.3520      29.9222         4.4784      29.7959

 Contributions to Isotropic shielding for atom   25 (    32.1991 ppm):
                         Standard Origin              Atomic Origin
 NLMO      Total    Paramagnetic  Diamagnetic   Paramagnetic  Diamagnetic
   10       0.0018       -0.3160       0.3177        -1.1691       1.1709
   16       1.6293       -0.1725       1.8018         0.6065       1.0228
   23       0.8437        1.9397      -1.0960        -0.1839       1.0275
   24       0.9577        1.5176      -0.5600        -0.0886       1.0463
   25      26.3837       -0.0818      26.4654         0.4085      25.9751
 Sum       29.8160        2.8871      26.9290        -0.4266      30.2427

 Contributions to Isotropic shielding for atom   26 (    32.5939 ppm):
                         Standard Origin              Atomic Origin
 NLMO      Total    Paramagnetic  Diamagnetic   Paramagnetic  Diamagnetic
   12      -0.0638        0.2276      -0.2913        -1.1134       1.0496
   23       1.5192       -0.9749       2.4941         0.5994       0.9198
   24      -0.1472        0.3426      -0.4898        -1.0344       0.8872
   26      26.3034        0.2623      26.0411         0.4095      25.8939
   27       2.0323        0.7184       1.3139         0.2216       1.8107
   28       1.8922        2.1514      -0.2592         0.0456       1.8467
 Sum       31.5361        2.7273      28.8088        -0.8718      32.4079

 Contributions to Isotropic shielding for atom   27 (    32.6349 ppm):
                         Standard Origin              Atomic Origin
 NLMO      Total    Paramagnetic  Diamagnetic   Paramagnetic  Diamagnetic
   23       1.5811       -0.9041       2.4852         0.5647       1.0164
   26       2.0489        0.7398       1.3091         0.2202       1.8287
   27      26.3853        0.2897      26.0956         0.4042      25.9812
   28       1.9034        2.1710      -0.2675         0.0594       1.8440
 Sum       31.9188        2.2964      29.6224         1.2485      30.6702

 Contributions to Isotropic shielding for atom   28 (    32.4537 ppm):
                         Standard Origin              Atomic Origin
 NLMO      Total    Paramagnetic  Diamagnetic   Paramagnetic  Diamagnetic
   23       1.2250        0.3938       0.8312         0.2033       1.0218
   24      -0.1716        0.7564      -0.9280        -1.1073       0.9357
   26       1.9536        1.8107       0.1429         0.0933       1.8603
   27       1.9590        1.8106       0.1485         0.1165       1.8425
   28      26.3426        0.0085      26.3341         0.4482      25.8944
 Sum       31.3086        4.7799      26.5287        -0.2460      31.5546

 Contributions to Isotropic shielding for atom   29 (    32.7371 ppm):
                         Standard Origin              Atomic Origin
 NLMO      Total    Paramagnetic  Diamagnetic   Paramagnetic  Diamagnetic
   12      -0.0956        0.0882      -0.1838        -1.0608       0.9651
   24       1.4710       -0.6198       2.0908         0.5492       0.9217
   29      26.3705        0.2569      26.1136         0.3771      25.9934
   30       2.1272        0.4639       1.6632         0.2927       1.8344
   31       1.9644        2.1327      -0.1682         0.1207       1.8437
 Sum       31.8374        2.3218      29.5156         0.2790      31.5584

 Contributions to Isotropic shielding for atom   30 (    32.2341 ppm):
                         Standard Origin              Atomic Origin
 NLMO      Total    Paramagnetic  Diamagnetic   Paramagnetic  Diamagnetic
    8      -0.1154        0.0769      -0.1924        -1.0417       0.9262
   10       0.0560       -0.1218       0.1778        -1.2827       1.3387
   24       1.5206       -0.7819       2.3026         0.5058       1.0149
   29       2.0900        0.4703       1.6198         0.2537       1.8363
   30      26.1521        0.2750      25.8770         0.3765      25.7755
   31       1.9365        1.9699      -0.0334         0.0642       1.8723
 Sum       31.6398        1.8884      29.7514        -1.1241      32.7640

 Contributions to Isotropic shielding for atom   31 (    32.5465 ppm):
                         Standard Origin              Atomic Origin
 NLMO      Total    Paramagnetic  Diamagnetic   Paramagnetic  Diamagnetic
   23      -0.1725        0.6284      -0.8009        -1.1543       0.9817
   24       1.1819        0.8470       0.3349         0.1593       1.0226
   29       1.9958        1.7408       0.2551         0.1358       1.8600
   30       2.0618        1.6484       0.4134         0.1805       1.8813
   31      26.3069       -0.0469      26.3538         0.3976      25.9093
 Sum       31.3739        4.8177      26.5562        -0.2811      31.6550
 
 1\1\GINC-COMPUTE-6-32\SP\RHF\STO-3G\C10H20O1\YTSAI.IQUIR\03-Aug-2021\0
 \\# rhf/STO-3G nmr pop=nbo\\comment\\0,1\C,0,-2.082592796,-0.427026552
 ,-3.014019245\C,0,-1.478256953,-0.345018531,-1.61400186\C,0,0.66435145
 ,-1.055483001,-0.379428552\C,0,-0.414983367,1.181459995,0.110115495\C,
 0,0.106830879,-0.136513093,0.723878219\C,0,-0.908395513,1.04529118,-1.
 334625921\C,0,-0.406848457,-1.428569966,-1.415392059\O,0,1.205411885,-
 2.253987671,0.168295607\C,0,1.082769265,0.074975722,1.918274025\C,0,0.
 451522845,0.933735087,3.019809836\C,0,2.440648606,0.660063623,1.519253
 045\H,0,-1.330643257,-0.227229155,-3.784942413\H,0,-2.50222448,-1.4217
 29964,-3.197586302\H,0,-2.889057984,0.304378566,-3.131835096\H,0,-2.28
 8368671,-0.529714276,-0.895325432\H,0,1.48469659,-0.545864744,-0.89848
 7596\H,0,0.34871511,1.965918174,0.131709\H,0,-1.242249682,1.547881804,
 0.731581292\H,0,-0.763195054,-0.658333601,1.151911086\H,0,-0.073549508
 ,1.242704693,-2.019959379\H,0,-1.659114889,1.820027238,-1.531626656\H,
 0,0.104352831,-1.64812487,-2.362246184\H,0,-0.901611919,-2.368671055,-
 1.137606029\H,0,0.501377676,-2.693854401,0.674807458\H,0,1.276903466,-
 0.909626808,2.36443799\H,0,0.304496963,1.968805584,2.695080835\H,0,-0.
 519183966,0.527546338,3.322751623\H,0,1.093910997,0.953510172,3.906988
 174\H,0,2.345023052,1.654914282,1.074830034\H,0,2.960685933,0.01472475
 7,0.80534098\H,0,3.088578947,0.753810476,2.398018022\\Version=EM64L-G0
 9RevC.01\State=1-A\HF=-459.6139089\RMSD=7.955e-09\Dipole=-0.5424829,0.
 1928885,0.0758939\Quadrupole=-0.9710781,0.0167484,0.9543297,2.7625008,
 -0.5063109,-1.0834464\PG=C01 [X(C10H20O1)]\\@


 THE WORLD OF CHEMICAL REACTIONS IS LIKE A STAGE,
 ON WHICH SCENE AFTER SCENE IS CEASELESSLY PLAYED.
 THE ACTORS ON IT ARE THE ELEMENTS.
   -- CLEMENS WINKLER   BER. 30,13(1897)
 (DISCOVERER OF GERMANIUM, FEB 6, 1886)
 Job cpu time:  0 days  0 hours  0 minutes 22.8 seconds.
 File lengths (MBytes):  RWF=      5 Int=      0 D2E=      0 Chk=      1 Scr=      1
 Normal termination of Gaussian 09 at Tue Aug  3 16:36:13 2021.
