 Entering Gaussian System, Link 0=g09
 Input=/home/ytsai.iquir/menthol/03_menthol_M0067_MMFF_NMR_rhf_STO-3G_nbo.gjc
 Output=/home/ytsai.iquir/menthol/03_menthol_M0067_MMFF_NMR_rhf_STO-3G_nbo.log
 Initial command:
 /share/apps/Gaussian09/EM64T.SSE4.2-enabled/g09/l1.exe /tmp/Gau-8056.inp -scrdir=/tmp/
 Entering Link 1 = /share/apps/Gaussian09/EM64T.SSE4.2-enabled/g09/l1.exe PID=      8060.
  
 Copyright (c) 1988,1990,1992,1993,1995,1998,2003,2009,2011,
            Gaussian, Inc.  All Rights Reserved.
  
 This is part of the Gaussian(R) 09 program.  It is based on
 the Gaussian(R) 03 system (copyright 2003, Gaussian, Inc.),
 the Gaussian(R) 98 system (copyright 1998, Gaussian, Inc.),
 the Gaussian(R) 94 system (copyright 1995, Gaussian, Inc.),
 the Gaussian 92(TM) system (copyright 1992, Gaussian, Inc.),
 the Gaussian 90(TM) system (copyright 1990, Gaussian, Inc.),
 the Gaussian 88(TM) system (copyright 1988, Gaussian, Inc.),
 the Gaussian 86(TM) system (copyright 1986, Carnegie Mellon
 University), and the Gaussian 82(TM) system (copyright 1983,
 Carnegie Mellon University). Gaussian is a federally registered
 trademark of Gaussian, Inc.
  
 This software contains proprietary and confidential information,
 including trade secrets, belonging to Gaussian, Inc.
  
 This software is provided under written license and may be
 used, copied, transmitted, or stored only in accord with that
 written license.
  
 The following legend is applicable only to US Government
 contracts under FAR:
  
                    RESTRICTED RIGHTS LEGEND
  
 Use, reproduction and disclosure by the US Government is
 subject to restrictions as set forth in subparagraphs (a)
 and (c) of the Commercial Computer Software - Restricted
 Rights clause in FAR 52.227-19.
  
 Gaussian, Inc.
 340 Quinnipiac St., Bldg. 40, Wallingford CT 06492
  
  
 ---------------------------------------------------------------
 Warning -- This program may not be used in any manner that
 competes with the business of Gaussian, Inc. or will provide
 assistance to any competitor of Gaussian, Inc.  The licensee
 of this program is prohibited from giving any competitor of
 Gaussian, Inc. access to this program.  By using this program,
 the user acknowledges that Gaussian, Inc. is engaged in the
 business of creating and licensing software in the field of
 computational chemistry and represents and warrants to the
 licensee that it is not a competitor of Gaussian, Inc. and that
 it will not use this program in any manner prohibited above.
 ---------------------------------------------------------------
  

 Cite this work as:
 Gaussian 09, Revision C.01,
 M. J. Frisch, G. W. Trucks, H. B. Schlegel, G. E. Scuseria, 
 M. A. Robb, J. R. Cheeseman, G. Scalmani, V. Barone, B. Mennucci, 
 G. A. Petersson, H. Nakatsuji, M. Caricato, X. Li, H. P. Hratchian, 
 A. F. Izmaylov, J. Bloino, G. Zheng, J. L. Sonnenberg, M. Hada, 
 M. Ehara, K. Toyota, R. Fukuda, J. Hasegawa, M. Ishida, T. Nakajima, 
 Y. Honda, O. Kitao, H. Nakai, T. Vreven, J. A. Montgomery, Jr., 
 J. E. Peralta, F. Ogliaro, M. Bearpark, J. J. Heyd, E. Brothers, 
 K. N. Kudin, V. N. Staroverov, T. Keith, R. Kobayashi, J. Normand, 
 K. Raghavachari, A. Rendell, J. C. Burant, S. S. Iyengar, J. Tomasi, 
 M. Cossi, N. Rega, J. M. Millam, M. Klene, J. E. Knox, J. B. Cross, 
 V. Bakken, C. Adamo, J. Jaramillo, R. Gomperts, R. E. Stratmann, 
 O. Yazyev, A. J. Austin, R. Cammi, C. Pomelli, J. W. Ochterski, 
 R. L. Martin, K. Morokuma, V. G. Zakrzewski, G. A. Voth, 
 P. Salvador, J. J. Dannenberg, S. Dapprich, A. D. Daniels, 
 O. Farkas, J. B. Foresman, J. V. Ortiz, J. Cioslowski, 
 and D. J. Fox, Gaussian, Inc., Wallingford CT, 2010.
 
 ******************************************
 Gaussian 09:  EM64L-G09RevC.01 23-Sep-2011
                 3-Aug-2021 
 ******************************************
 %nprocshared=4
 Will use up to    4 processors via shared memory.
 ------------------------
 # rhf/STO-3G nmr pop=nbo
 ------------------------
 1/38=1/1;
 2/12=2,17=6,18=5,40=1/2;
 3/6=3,11=1,16=1,25=1,30=1,116=1/1,2,8,3;
 4//1;
 5/5=2,38=5/2;
 8/6=1,10=90,11=11/1;
 10/13=100,45=16/2;
 6/7=2,8=2,9=2,10=2,28=1,64=1/1,7;
 99/9=1/99;
 -------
 comment
 -------
 Charge =  0 Multiplicity = 1
 Symbolic Z-Matrix:
 6                     0.28258   0.91287  -3.53549 
 6                    -0.1306    0.49891  -2.12453 
 6                     0.36803  -1.0486   -0.17159 
 6                    -0.00841   1.41208   0.27378 
 6                    -0.45222  -0.01287   0.63629 
 6                    -0.24619   1.72744  -1.20679 
 6                     0.84169  -0.53149  -1.53987 
 8                    -0.42559  -2.21987  -0.37894 
 6                    -0.44707  -0.24545   2.17682 
 6                     0.91945  -0.05064   2.84145 
 6                    -1.0137   -1.61588   2.5596 
 1                    -0.42535   1.63854  -3.94959 
 1                     1.27896   1.36765  -3.54161 
 1                     0.30344   0.04553  -4.20368 
 1                    -1.12184   0.03167  -2.19848 
 1                     1.25136  -1.37597   0.38418 
 1                     1.06106   1.53373   0.48606 
 1                    -0.53559   2.15309   0.88623 
 1                    -1.50594  -0.10587   0.33217 
 1                     0.45926   2.51169  -1.50887 
 1                    -1.24769   2.1591   -1.33014 
 1                     1.82697  -0.06126  -1.42345 
 1                     0.9648   -1.36963  -2.23661 
 1                    -1.19565  -1.96927  -0.91693 
 1                    -1.1212    0.50488   2.61317 
 1                     1.66058  -0.76693   2.47556 
 1                     1.30638   0.95895   2.67614 
 1                     0.83863  -0.1881    3.92572 
 1                    -0.34191  -2.42927   2.26786 
 1                    -1.98738  -1.78332   2.0877 
 1                    -1.15687  -1.68173   3.64384 
 
                          Input orientation:                          
 ---------------------------------------------------------------------
 Center     Atomic      Atomic             Coordinates (Angstroms)
 Number     Number       Type             X           Y           Z
 ---------------------------------------------------------------------
      1          6           0        0.282575    0.912875   -3.535491
      2          6           0       -0.130603    0.498914   -2.124531
      3          6           0        0.368031   -1.048601   -0.171586
      4          6           0       -0.008407    1.412079    0.273779
      5          6           0       -0.452224   -0.012865    0.636287
      6          6           0       -0.246187    1.727441   -1.206788
      7          6           0        0.841695   -0.531487   -1.539870
      8          8           0       -0.425595   -2.219872   -0.378936
      9          6           0       -0.447073   -0.245453    2.176823
     10          6           0        0.919448   -0.050636    2.841454
     11          6           0       -1.013701   -1.615880    2.559602
     12          1           0       -0.425353    1.638538   -3.949590
     13          1           0        1.278963    1.367655   -3.541612
     14          1           0        0.303443    0.045526   -4.203675
     15          1           0       -1.121839    0.031674   -2.198477
     16          1           0        1.251355   -1.375973    0.384177
     17          1           0        1.061061    1.533734    0.486059
     18          1           0       -0.535589    2.153094    0.886226
     19          1           0       -1.505935   -0.105869    0.332169
     20          1           0        0.459264    2.511689   -1.508867
     21          1           0       -1.247691    2.159098   -1.330139
     22          1           0        1.826968   -0.061264   -1.423454
     23          1           0        0.964805   -1.369633   -2.236614
     24          1           0       -1.195646   -1.969271   -0.916933
     25          1           0       -1.121201    0.504882    2.613172
     26          1           0        1.660581   -0.766933    2.475563
     27          1           0        1.306377    0.958953    2.676139
     28          1           0        0.838627   -0.188096    3.925715
     29          1           0       -0.341906   -2.429272    2.267859
     30          1           0       -1.987377   -1.783317    2.087696
     31          1           0       -1.156867   -1.681730    3.643844
 ---------------------------------------------------------------------
                    Distance matrix (angstroms):
                    1          2          3          4          5
     1  C    0.000000
     2  C    1.527379   0.000000
     3  C    3.894938   2.541148   0.000000
     4  C    3.852844   2.569181   2.528833   0.000000
     5  C    4.335972   2.826213   1.548620   1.535855   0.000000
     6  C    2.523087   1.537821   3.025775   1.532341   2.543235
     7  C    2.526123   1.532618   1.537519   2.790957   2.584348
     8  O    4.503270   3.244368   1.429935   3.713644   2.429459
     9  C    5.874064   4.376743   2.612367   2.561526   1.558003
    10  C    6.480693   5.105450   3.221553   3.097322   2.597243
    11  C    6.724960   5.214721   3.112936   3.924810   2.565941
    12  H    1.095093   2.171741   4.703561   4.249938   4.874231
    13  H    1.095286   2.179382   4.245605   4.026971   4.728391
    14  H    1.095080   2.171818   4.178400   4.691728   4.898947
    15  H    2.129906   1.098330   2.737698   3.042579   2.913118
    16  H    4.641244   3.423248   1.093758   3.061441   2.196316
    17  H    4.142990   3.050590   2.753406   1.097099   2.169002
    18  H    4.664666   3.459044   3.490894   1.096410   2.181925
    19  H    4.381256   2.879701   2.157373   2.133112   1.100657
    20  H    2.587398   2.185921   3.804248   2.146085   3.435967
    21  H    2.959453   2.152941   3.773876   2.160189   3.035956
    22  H    2.791916   2.153461   2.161135   2.901713   3.072392
    23  H    2.713366   2.168859   2.173371   3.871322   3.478843
    24  H    4.165182   2.946955   1.961698   3.776354   2.606279
    25  H    6.320055   4.840160   3.519374   2.744827   2.150271
    26  H    6.391668   5.096232   2.959294   3.518731   2.900948
    27  H    6.295604   5.032195   3.608365   2.775845   2.863233
    28  H    7.562468   6.165783   4.213052   4.076109   3.537985
    29  H    6.725979   5.283182   2.891566   4.340916   2.917742
    30  H    6.636442   5.138000   3.345461   4.173388   2.756408
    31  H    7.768321   6.251606   4.157363   4.716773   3.510987
                    6          7          8          9         10
     6  C    0.000000
     7  C    2.529266   0.000000
     8  O    4.037179   2.409239   0.000000
     9  C    3.921924   3.944178   3.229659   0.000000
    10  C    4.572584   4.408317   4.109214   1.532014   0.000000
    11  C    5.094365   4.628614   3.057071   1.531553   2.503297
    12  H    2.750086   3.481547   5.257081   6.409589   7.126014
    13  H    2.811927   2.793727   5.077242   6.187229   6.548612
    14  H    3.480268   2.778222   4.504681   6.431072   7.072662
    15  H    2.150776   2.146247   2.977406   4.435691   5.438246
    16  H    3.795389   2.140779   2.026492   2.715936   2.811564
    17  H    2.147592   2.901318   4.128914   2.880739   2.842212
    18  H    2.155374   3.871669   4.553632   2.725161   3.285799
    19  H    2.704881   3.032663   2.478269   2.131530   3.490279
    20  H    1.097250   3.067268   4.944430   4.691224   5.069769
    21  H    1.097521   3.413029   4.555877   4.326851   5.194382
    22  H    2.746704   1.097919   3.290083   4.262297   4.360406
    23  H    3.481223   1.096858   2.471252   4.768186   5.246769
    24  H    3.827684   2.570219   0.972224   3.619838   4.720196
    25  H    4.105166   4.709010   4.106199   1.099024   2.127195
    26  H    4.839150   4.104840   3.822477   2.191664   1.093726
    27  H    4.251841   4.495783   4.736892   2.185063   1.093761
    28  H    5.584683   5.476363   4.925079   2.171391   1.095924
    29  H    5.418542   4.416028   2.656384   2.188244   2.752806
    30  H    5.119647   4.767595   2.951952   2.178418   3.466982
    31  H    5.998367   5.673464   4.123969   2.172291   2.759598
                   11         12         13         14         15
    11  C    0.000000
    12  H    7.301162   0.000000
    13  H    7.168165   1.773279   0.000000
    14  H    7.087810   1.770138   1.771438   0.000000
    15  H    5.036411   2.476591   3.058219   2.460171   0.000000
    16  H    3.149684   5.538967   4.789579   4.895670   3.779367
    17  H    4.303985   4.679251   4.036978   4.978188   3.771998
    18  H    4.151378   4.864364   4.849253   5.572513   3.789393
    19  H    2.735668   4.748060   4.993306   4.885760   2.563321
    20  H    5.979873   2.738991   2.472402   3.656259   3.020913
    21  H    5.425431   2.794413   3.449779   3.889783   2.301256
    22  H    5.133319   3.787300   2.613180   3.172092   3.050370
    23  H    5.194113   3.730404   3.048681   2.511853   2.513802
    24  H    3.499183   4.775630   4.914031   4.136344   2.377306
    25  H    2.124160   6.696210   6.662321   6.979256   4.834861
    26  H    2.807055   7.170774   6.395974   6.863974   5.497843
    27  H    3.467868   6.881934   6.231228   7.012280   5.524306
    28  H    2.708497   8.182583   7.640368   8.150337   6.434085
    29  H    1.094546   7.430391   7.126978   6.958581   5.158750
    30  H    1.094886   7.113216   7.230955   6.940740   4.734409
    31  H    1.095634   8.319828   8.176967   8.166975   6.088488
                   16         17         18         19         20
    16  H    0.000000
    17  H    2.917702   0.000000
    18  H    3.987422   1.758702   0.000000
    19  H    3.036201   3.049829   2.520211   0.000000
    20  H    4.396013   2.301800   2.618165   3.755400   0.000000
    21  H    4.656269   3.003330   2.327960   2.821354   1.752130
    22  H    2.308098   2.603242   3.977395   3.767286   2.915132
    23  H    2.636417   3.981426   4.940942   3.781574   3.981186
    24  H    2.834202   4.396835   4.547631   2.264685   4.813326
    25  H    3.759661   3.216429   2.458025   2.392491   4.849365
    26  H    2.216369   3.100101   3.984434   3.880460   5.297943
    27  H    3.272307   2.277500   2.832420   3.812761   4.543441
    28  H    3.758176   3.852975   4.075308   4.291539   6.080085
    29  H    2.682570   4.566022   4.790042   3.240380   6.270457
    30  H    3.682023   4.781323   4.364235   2.475377   6.112969
    31  H    4.064290   5.022950   4.764065   3.684071   6.837183
                   21         22         23         24         25
    21  H    0.000000
    22  H    3.793711   0.000000
    23  H    4.262485   1.765328   0.000000
    24  H    4.149323   3.610159   2.601667   0.000000
    25  H    4.278099   5.030563   5.602289   4.311451   0.000000
    26  H    5.612760   3.965852   4.801246   4.594853   3.061823
    27  H    4.900396   4.256585   5.447396   5.267331   2.470482
    28  H    6.122585   5.441186   6.275847   5.546358   2.458438
    29  H    5.900778   4.892573   4.808389   3.329170   3.055455
    30  H    5.269855   5.462863   5.252254   3.112750   2.502447
    31  H    6.284960   6.099728   6.259288   4.569997   2.417608
                   26         27         28         29         30
    26  H    0.000000
    27  H    1.773238   0.000000
    28  H    1.764540   1.759532   0.000000
    29  H    2.610837   3.789934   3.027378   0.000000
    30  H    3.806714   4.326098   3.729523   1.776877   0.000000
    31  H    3.184297   3.738614   2.508464   1.765309   1.766823
                   31
    31  H    0.000000
 Stoichiometry    C10H20O
 Framework group  C1[X(C10H20O)]
 Deg. of freedom    87
 Full point group                 C1      NOp   1
 Largest Abelian subgroup         C1      NOp   1
 Largest concise Abelian subgroup C1      NOp   1
                         Standard orientation:                         
 ---------------------------------------------------------------------
 Center     Atomic      Atomic             Coordinates (Angstroms)
 Number     Number       Type             X           Y           Z
 ---------------------------------------------------------------------
      1          6           0       -3.660961    0.065094    0.040388
      2          6           0       -2.163728    0.070996   -0.261516
      3          6           0        0.119471    0.876103    0.510649
      4          6           0       -0.165688   -1.541693   -0.173415
      5          6           0        0.639648   -0.255456   -0.409795
      6          6           0       -1.650236   -1.357853   -0.505665
      7          6           0       -1.372667    0.752666    0.860298
      8          8           0        0.333358    2.137974   -0.127040
      9          6           0        2.174062   -0.509008   -0.316747
     10          6           0        2.644204   -1.054928    1.035291
     11          6           0        2.991652    0.733701   -0.681271
     12          1           0       -4.218546   -0.411573   -0.772702
     13          1           0       -3.878567   -0.477828    0.966419
     14          1           0       -4.038145    1.087105    0.151857
     15          1           0       -2.018926    0.649660   -1.183746
     16          1           0        0.679155    0.912758    1.449646
     17          1           0       -0.081316   -1.845366    0.877437
     18          1           0        0.234718   -2.368734   -0.771575
     19          1           0        0.458155    0.047507   -1.452253
     20          1           0       -2.225972   -2.087594    0.077400
     21          1           0       -1.820966   -1.612048   -1.559605
     22          1           0       -1.477519    0.158840    1.777796
     23          1           0       -1.793512    1.744034    1.068083
     24          1           0       -0.195015    2.155302   -0.942970
     25          1           0        2.415337   -1.273837   -1.068196
     26          1           0        2.454660   -0.351619    1.851175
     27          1           0        2.155165   -2.002702    1.277938
     28          1           0        3.722696   -1.248413    1.013650
     29          1           0        2.906974    1.514000    0.081614
     30          1           0        2.666820    1.149214   -1.640754
     31          1           0        4.053396    0.479776   -0.774197
 ---------------------------------------------------------------------
 Rotational constants (GHZ):      1.8960163      0.6984202      0.5876159
 Standard basis: STO-3G (5D, 7F)
 There are    75 symmetry adapted basis functions of A   symmetry.
 Integral buffers will be    131072 words long.
 Raffenetti 1 integral format.
 Two-electron integral symmetry is turned on.
    75 basis functions,   225 primitive gaussians,    75 cartesian basis functions
    44 alpha electrons       44 beta electrons
       nuclear repulsion energy       693.3631909642 Hartrees.
 NAtoms=   31 NActive=   31 NUniq=   31 SFac= 1.00D+00 NAtFMM=   60 NAOKFM=F Big=F
 One-electron integrals computed using PRISM.
 NBasis=    75 RedAO= T  NBF=    75
 NBsUse=    75 1.00D-06 NBFU=    75
 Harris functional with IExCor=  205 diagonalized for initial guess.
 ExpMin= 1.69D-01 ExpMax= 1.31D+02 ExpMxC= 1.31D+02 IAcc=1 IRadAn=         1 AccDes= 0.00D+00
 HarFok:  IExCor=  205 AccDes= 0.00D+00 IRadAn=         1 IDoV= 1
 ScaDFX=  1.000000  1.000000  1.000000  1.000000
 FoFCou: FMM=F IPFlag=           0 FMFlag=      100000 FMFlg1=           0
         NFxFlg=           0 DoJE=T BraDBF=F KetDBF=T FulRan=T
         Omega=  0.000000  0.000000  1.000000  0.000000  0.000000 ICntrl=     500 IOpCl=  0
         NMat0=    1 NMatS0=    1 NMatT0=    0 NMatD0=    1 NMtDS0=    0 NMtDT0=    0
         I1Cent=           4 NGrid=           0.
 Petite list used in FoFCou.
 Initial guess orbital symmetries:
       Occupied  (A) (A) (A) (A) (A) (A) (A) (A) (A) (A) (A) (A)
                 (A) (A) (A) (A) (A) (A) (A) (A) (A) (A) (A) (A)
                 (A) (A) (A) (A) (A) (A) (A) (A) (A) (A) (A) (A)
                 (A) (A) (A) (A) (A) (A) (A) (A)
       Virtual   (A) (A) (A) (A) (A) (A) (A) (A) (A) (A) (A) (A)
                 (A) (A) (A) (A) (A) (A) (A) (A) (A) (A) (A) (A)
                 (A) (A) (A) (A) (A) (A) (A)
 The electronic state of the initial guess is 1-A.
 Requested convergence on RMS density matrix=1.00D-08 within 128 cycles.
 Requested convergence on MAX density matrix=1.00D-06.
 Requested convergence on             energy=1.00D-06.
 No special actions if energy rises.
 Keep R1 ints in memory in canonical form, NReq=4898789.
 SCF Done:  E(RHF) =  -459.613577884     A.U. after   10 cycles
             Convg  =    0.9399D-08             -V/T =  2.0089
 Range of M.O.s used for correlation:     1    75
 NBasis=    75 NAE=    44 NBE=    44 NFC=     0 NFV=     0
 NROrb=     75 NOA=    44 NOB=    44 NVA=    31 NVB=    31
          Differentiating once with respect to magnetic field using GIAOs.
          Electric field/nuclear overlap derivatives assumed to be zero.
          Keep R3 ints in memory in canonical form, NReq=4863575.
 FoFCou: FMM=F IPFlag=           0 FMFlag=           0 FMFlg1=           0
         NFxFlg=           0 DoJE=F BraDBF=F KetDBF=T FulRan=T
         Omega=  0.000000  0.000000  1.000000  0.000000  0.000000 ICntrl=    6100 IOpCl=  0
         NMat0=    1 NMatS0=    1 NMatT0=    0 NMatD0=    1 NMtDS0=    0 NMtDT0=    0
         I1Cent=           7 NGrid=          31.
 Symmetry not used in FoFCou.
          There are     3 degrees of freedom in the 1st order CPHF.  IDoFFX=0.
      3 vectors produced by pass  0 Test12= 4.55D-14 3.33D-08 XBig12= 7.43D+00 4.22D-01.
 AX will form     3 AO Fock derivatives at one time.
      3 vectors produced by pass  1 Test12= 4.55D-14 3.33D-08 XBig12= 1.06D-02 1.44D-02.
      3 vectors produced by pass  2 Test12= 4.55D-14 3.33D-08 XBig12= 6.29D-05 2.26D-03.
      3 vectors produced by pass  3 Test12= 4.55D-14 3.33D-08 XBig12= 1.67D-06 4.06D-04.
      3 vectors produced by pass  4 Test12= 4.55D-14 3.33D-08 XBig12= 1.99D-08 2.51D-05.
      3 vectors produced by pass  5 Test12= 4.55D-14 3.33D-08 XBig12= 3.11D-10 2.62D-06.
      3 vectors produced by pass  6 Test12= 4.55D-14 3.33D-08 XBig12= 4.24D-12 5.08D-07.
      1 vectors produced by pass  7 Test12= 4.55D-14 3.33D-08 XBig12= 6.08D-14 5.74D-08.
 Inverted reduced A of dimension    22 with in-core refinement.
 Calculating GIAO nuclear magnetic shielding tensors.
 SCF GIAO Magnetic shielding tensor (ppm):
      1  C    Isotropic =   221.2587   Anisotropy =    27.6226
   XX=   239.0352   YX=    -3.4227   ZX=    -2.6832
   XY=    -0.9212   YY=   214.5969   ZY=     0.0958
   XZ=    -4.7439   YZ=    -1.6602   ZZ=   210.1441
   Eigenvalues:   209.4546   214.6478   239.6738
      2  C    Isotropic =   217.7066   Anisotropy =     9.4853
   XX=   222.9800   YX=    -2.1899   ZX=     1.0358
   XY=    -2.2372   YY=   216.9512   ZY=     5.0855
   XZ=    -1.2724   YZ=     4.6403   ZZ=   213.1888
   Eigenvalues:   209.7526   219.3371   224.0302
      3  C    Isotropic =   190.0814   Anisotropy =    37.6502
   XX=   182.2588   YX=     3.5195   ZX=    -7.7789
   XY=     3.3693   YY=   209.6682   ZY=   -13.1848
   XZ=    -6.6836   YZ=   -12.2672   ZZ=   178.3174
   Eigenvalues:   170.8078   184.2550   215.1816
      4  C    Isotropic =   218.2441   Anisotropy =    15.8328
   XX=   227.4180   YX=     2.6339   ZX=    -0.2642
   XY=     3.5917   YY=   221.6867   ZY=    -0.4862
   XZ=    -1.5232   YZ=     1.5475   ZZ=   205.6274
   Eigenvalues:   205.5633   220.3696   228.7992
      5  C    Isotropic =   208.2673   Anisotropy =    11.0167
   XX=   212.1121   YX=    -4.9990   ZX=     1.5443
   XY=    -4.0371   YY=   209.4603   ZY=     0.4498
   XZ=     1.0132   YZ=    -1.0454   ZZ=   203.2294
   Eigenvalues:   203.0223   206.1677   215.6118
      6  C    Isotropic =   216.5961   Anisotropy =    19.2093
   XX=   224.9990   YX=    -3.6631   ZX=    -0.8622
   XY=    -6.5895   YY=   222.5327   ZY=     4.2166
   XZ=    -0.9679   YZ=     3.5131   ZZ=   202.2567
   Eigenvalues:   201.5450   218.8411   229.4023
      7  C    Isotropic =   214.2743   Anisotropy =    19.3499
   XX=   226.2694   YX=     2.6526   ZX=    -3.2250
   XY=     4.3969   YY=   212.2193   ZY=     3.6950
   XZ=     3.1168   YZ=     7.3037   ZZ=   204.3343
   Eigenvalues:   201.3965   214.2523   227.1743
      8  O    Isotropic =   345.5648   Anisotropy =    55.5675
   XX=   338.4406   YX=   -13.2847   ZX=    35.4020
   XY=     4.2916   YY=   334.2681   ZY=    22.0104
   XZ=    20.5363   YZ=    -3.0902   ZZ=   363.9857
   Eigenvalues:   316.0156   338.0690   382.6098
      9  C    Isotropic =   212.5676   Anisotropy =    17.0503
   XX=   223.8874   YX=     0.0353   ZX=    -2.5600
   XY=    -1.4525   YY=   208.0747   ZY=    -3.4897
   XZ=     1.2932   YZ=    -1.3570   ZZ=   205.7408
   Eigenvalues:   204.1757   209.5926   223.9345
     10  C    Isotropic =   224.4097   Anisotropy =    20.9858
   XX=   221.6660   YX=    -3.1100   ZX=     5.9750
   XY=    -1.9635   YY=   220.1540   ZY=    -7.8209
   XZ=     4.1226   YZ=   -10.4136   ZZ=   231.4091
   Eigenvalues:   215.0557   219.7731   238.4002
     11  C    Isotropic =   221.2443   Anisotropy =    24.4003
   XX=   223.5097   YX=     9.5397   ZX=    -4.1087
   XY=     9.1581   YY=   225.9873   ZY=   -10.6731
   XZ=    -1.8876   YZ=    -7.1897   ZZ=   214.2359
   Eigenvalues:   209.1014   217.1203   237.5111
     12  H    Isotropic =    32.4293   Anisotropy =    13.6508
   XX=    37.2462   YX=     2.3759   ZX=     5.4811
   XY=     2.3430   YY=    28.4933   ZY=     3.3627
   XZ=     5.2589   YZ=     3.0732   ZZ=    31.5484
   Eigenvalues:    26.3365    29.4216    41.5298
     13  H    Isotropic =    32.7117   Anisotropy =    11.8689
   XX=    34.2671   YX=     2.1566   ZX=    -4.6460
   XY=     2.0944   YY=    29.5099   ZY=    -3.8929
   XZ=    -4.6874   YZ=    -3.8588   ZZ=    34.3582
   Eigenvalues:    27.3231    30.1878    40.6243
     14  H    Isotropic =    32.5495   Anisotropy =    13.8134
   XX=    35.2733   YX=    -6.2030   ZX=    -0.7196
   XY=    -5.8275   YY=    35.9527   ZY=     1.2597
   XZ=    -0.5596   YZ=     1.2716   ZZ=    26.4224
   Eigenvalues:    26.2532    29.6367    41.7584
     15  H    Isotropic =    33.1187   Anisotropy =    10.0617
   XX=    32.2501   YX=     0.0166   ZX=     0.4813
   XY=     0.0873   YY=    31.0111   ZY=    -5.7734
   XZ=     0.7102   YZ=    -5.6332   ZZ=    36.0949
   Eigenvalues:    27.2815    32.2481    39.8264
     16  H    Isotropic =    31.4573   Anisotropy =     9.1975
   XX=    33.0956   YX=    -0.7387   ZX=     3.3427
   XY=    -1.2138   YY=    26.8738   ZY=     1.5483
   XZ=     4.0351   YZ=     2.6315   ZZ=    34.4024
   Eigenvalues:    25.7621    31.0209    37.5890
     17  H    Isotropic =    32.7105   Anisotropy =    10.0944
   XX=    32.2178   YX=     0.3245   ZX=     1.8920
   XY=    -0.1676   YY=    31.4592   ZY=    -5.8181
   XZ=     1.7138   YZ=    -6.2532   ZZ=    34.4546
   Eigenvalues:    26.4917    32.1998    39.4401
     18  H    Isotropic =    32.5618   Anisotropy =    13.0592
   XX=    32.4941   YX=    -2.5987   ZX=    -1.1801
   XY=    -2.7371   YY=    37.4029   ZY=     5.9455
   XZ=    -1.1514   YZ=     6.1034   ZZ=    27.7884
   Eigenvalues:    24.8866    31.5309    41.2679
     19  H    Isotropic =    33.0472   Anisotropy =     7.9178
   XX=    33.3001   YX=     0.4065   ZX=     0.9195
   XY=    -0.0012   YY=    28.3417   ZY=    -2.9328
   XZ=     0.0882   YZ=    -2.6706   ZZ=    37.4997
   Eigenvalues:    27.5335    33.2823    38.3257
     20  H    Isotropic =    32.6055   Anisotropy =    12.8427
   XX=    34.6284   YX=     4.3655   ZX=    -2.4348
   XY=     4.2367   YY=    36.2758   ZY=    -3.4396
   XZ=    -2.5945   YZ=    -3.7223   ZZ=    26.9124
   Eigenvalues:    25.5579    31.0914    41.1673
     21  H    Isotropic =    32.3501   Anisotropy =    13.4259
   XX=    30.2680   YX=     0.1366   ZX=     3.4841
   XY=     0.2475   YY=    29.8323   ZY=     5.9533
   XZ=     3.5549   YZ=     6.0911   ZZ=    36.9500
   Eigenvalues:    25.7482    30.0014    41.3007
     22  H    Isotropic =    32.5376   Anisotropy =    10.8843
   XX=    30.8118   YX=     0.8662   ZX=    -2.1818
   XY=     0.8916   YY=    28.1667   ZY=    -3.1616
   XZ=    -1.8816   YZ=    -2.1252   ZZ=    38.6343
   Eigenvalues:    27.4865    30.3325    39.7938
     23  H    Isotropic =    32.3076   Anisotropy =    12.9776
   XX=    32.4903   YX=    -3.7541   ZX=    -2.3734
   XY=    -3.1992   YY=    36.7008   ZY=     5.2144
   XZ=    -1.7701   YZ=     5.0877   ZZ=    27.7318
   Eigenvalues:    25.3534    30.6101    40.9594
     24  H    Isotropic =    35.0311   Anisotropy =    13.6496
   XX=    32.3509   YX=    -0.1860   ZX=     5.7806
   XY=     1.0033   YY=    34.8563   ZY=    -5.1930
   XZ=     5.0976   YZ=    -6.9441   ZZ=    37.8860
   Eigenvalues:    26.9946    33.9678    44.1308
     25  H    Isotropic =    32.4664   Anisotropy =    12.3360
   XX=    31.5637   YX=    -2.3853   ZX=    -3.1367
   XY=    -2.4129   YY=    33.0686   ZY=     6.1849
   XZ=    -3.0522   YZ=     6.0533   ZZ=    32.7668
   Eigenvalues:    26.7165    29.9922    40.6904
     26  H    Isotropic =    32.6804   Anisotropy =     9.8452
   XX=    30.1580   YX=    -1.5001   ZX=     1.6028
   XY=    -1.8368   YY=    30.0852   ZY=     3.3689
   XZ=     1.7546   YZ=     3.5895   ZZ=    37.7978
   Eigenvalues:    27.1536    31.6436    39.2438
     27  H    Isotropic =    32.6181   Anisotropy =    11.2281
   XX=    31.6283   YX=     2.0693   ZX=     1.4689
   XY=     1.7412   YY=    36.7736   ZY=    -5.6598
   XZ=     1.2292   YZ=    -5.9527   ZZ=    29.4525
   Eigenvalues:    25.5179    32.2330    40.1036
     28  H    Isotropic =    32.5328   Anisotropy =    14.7921
   XX=    40.4456   YX=    -3.8963   ZX=     2.6554
   XY=    -3.9444   YY=    28.5480   ZY=    -2.3698
   XZ=     2.7369   YZ=    -2.2657   ZZ=    28.6048
   Eigenvalues:    26.1755    29.0287    42.3942
     29  H    Isotropic =    32.0984   Anisotropy =     9.1040
   XX=    31.6517   YX=     2.4895   ZX=    -0.1335
   XY=     2.4618   YY=    35.3802   ZY=     4.0441
   XZ=    -0.2560   YZ=     4.2119   ZZ=    29.2632
   Eigenvalues:    26.8090    31.3184    38.1677
     30  H    Isotropic =    32.3900   Anisotropy =    11.7957
   XX=    31.0103   YX=     1.0274   ZX=    -0.6440
   XY=     0.6492   YY=    30.1819   ZY=    -6.7148
   XZ=    -0.9388   YZ=    -6.1132   ZZ=    35.9778
   Eigenvalues:    26.0261    30.8901    40.2538
     31  H    Isotropic =    32.4434   Anisotropy =    14.9605
   XX=    41.8172   YX=     0.4606   ZX=    -2.9480
   XY=     0.5222   YY=    28.1353   ZY=    -1.3497
   XZ=    -2.8561   YZ=    -1.3454   ZZ=    27.3778
   Eigenvalues:    26.0716    28.8416    42.4171
 End of Minotr Frequency-dependent properties file   721 does not exist.
 End of Minotr Frequency-dependent properties file   722 does not exist.

 **********************************************************************

            Population analysis using the SCF density.

 **********************************************************************

 Orbital symmetries:
       Occupied  (A) (A) (A) (A) (A) (A) (A) (A) (A) (A) (A) (A)
                 (A) (A) (A) (A) (A) (A) (A) (A) (A) (A) (A) (A)
                 (A) (A) (A) (A) (A) (A) (A) (A) (A) (A) (A) (A)
                 (A) (A) (A) (A) (A) (A) (A) (A)
       Virtual   (A) (A) (A) (A) (A) (A) (A) (A) (A) (A) (A) (A)
                 (A) (A) (A) (A) (A) (A) (A) (A) (A) (A) (A) (A)
                 (A) (A) (A) (A) (A) (A) (A)
 The electronic state is 1-A.
 Alpha  occ. eigenvalues --  -20.23485 -11.08421 -11.05009 -11.04573 -11.04405
 Alpha  occ. eigenvalues --  -11.03799 -11.03760 -11.03703 -11.03506 -11.02909
 Alpha  occ. eigenvalues --  -11.02354  -1.27622  -1.08325  -1.03779  -0.97074
 Alpha  occ. eigenvalues --   -0.94583  -0.88651  -0.87955  -0.79841  -0.79268
 Alpha  occ. eigenvalues --   -0.73693  -0.68341  -0.63352  -0.61041  -0.58312
 Alpha  occ. eigenvalues --   -0.57479  -0.56067  -0.53530  -0.53106  -0.52697
 Alpha  occ. eigenvalues --   -0.51994  -0.50682  -0.48823  -0.48613  -0.46533
 Alpha  occ. eigenvalues --   -0.45901  -0.44726  -0.42930  -0.42538  -0.41656
 Alpha  occ. eigenvalues --   -0.39388  -0.39164  -0.35870  -0.32626
 Alpha virt. eigenvalues --    0.53813   0.54879   0.57261   0.59141   0.60682
 Alpha virt. eigenvalues --    0.61584   0.61902   0.63904   0.65136   0.65768
 Alpha virt. eigenvalues --    0.68115   0.69566   0.70362   0.71328   0.72036
 Alpha virt. eigenvalues --    0.72151   0.73346   0.73957   0.75074   0.76764
 Alpha virt. eigenvalues --    0.76846   0.77425   0.78715   0.78805   0.80860
 Alpha virt. eigenvalues --    0.81562   0.81699   0.82306   0.84505   0.85920
 Alpha virt. eigenvalues --    0.87414
          Condensed to atoms (all electrons):
              1          2          3          4          5          6
     1  C    4.738415   0.366178   0.000712   0.000679   0.000021  -0.023903
     2  C    0.366178   4.748778  -0.021568  -0.020363  -0.006869   0.362046
     3  C    0.000712  -0.021568   4.746243  -0.021944   0.355536  -0.002857
     4  C    0.000679  -0.020363  -0.021944   4.759667   0.360625   0.361088
     5  C    0.000021  -0.006869   0.355536   0.360625   4.789731  -0.021248
     6  C   -0.023903   0.362046  -0.002857   0.361088  -0.021248   4.761120
     7  C   -0.023543   0.362561   0.355713  -0.007085  -0.022241  -0.023364
     8  O   -0.000001  -0.000119   0.268142   0.000272  -0.018798   0.000008
     9  C    0.000000   0.000020  -0.018390  -0.020909   0.359100   0.000637
    10  C    0.000000   0.000000  -0.001762  -0.002274  -0.020149   0.000009
    11  C    0.000000   0.000000  -0.001347   0.000634  -0.021686  -0.000004
    12  H    0.382489  -0.020313  -0.000017   0.000011   0.000000  -0.002137
    13  H    0.382351  -0.020745   0.000005   0.000016   0.000000  -0.002296
    14  H    0.382284  -0.020343   0.000013  -0.000017   0.000000   0.001286
    15  H   -0.024881   0.381855  -0.002271   0.000191  -0.000098  -0.024175
    16  H   -0.000015   0.001217   0.379644   0.000224  -0.022492   0.000024
    17  H   -0.000004   0.000066  -0.002579   0.382208  -0.022537  -0.023483
    18  H   -0.000012   0.001141   0.001155   0.383118  -0.020392  -0.021735
    19  H    0.000001  -0.000227  -0.023907  -0.024417   0.378680  -0.002784
    20  H   -0.005137  -0.021227   0.000008  -0.022847   0.001226   0.382583
    21  H    0.000065  -0.022774   0.000015  -0.022456  -0.000138   0.382198
    22  H   -0.001980  -0.022887  -0.020660  -0.000337   0.000372  -0.002431
    23  H   -0.002514  -0.021227  -0.020775   0.000069   0.001021   0.001225
    24  H   -0.000014  -0.000090  -0.041754  -0.000001  -0.003064   0.000022
    25  H    0.000000  -0.000001   0.001065  -0.002491  -0.023654   0.000012
    26  H    0.000000   0.000000  -0.000645   0.000013  -0.001502  -0.000002
    27  H    0.000000   0.000000   0.000048  -0.000873  -0.001521   0.000004
    28  H    0.000000   0.000000   0.000015   0.000027   0.001106   0.000000
    29  H    0.000000   0.000000  -0.000237  -0.000002  -0.001215   0.000000
    30  H    0.000000   0.000000  -0.000012   0.000017  -0.002490   0.000000
    31  H    0.000000   0.000000   0.000004  -0.000014   0.001161   0.000000
              7          8          9         10         11         12
     1  C   -0.023543  -0.000001   0.000000   0.000000   0.000000   0.382489
     2  C    0.362561  -0.000119   0.000020   0.000000   0.000000  -0.020313
     3  C    0.355713   0.268142  -0.018390  -0.001762  -0.001347  -0.000017
     4  C   -0.007085   0.000272  -0.020909  -0.002274   0.000634   0.000011
     5  C   -0.022241  -0.018798   0.359100  -0.020149  -0.021686   0.000000
     6  C   -0.023364   0.000008   0.000637   0.000009  -0.000004  -0.002137
     7  C    4.786492  -0.020437   0.000531   0.000009   0.000003   0.001283
     8  O   -0.020437   7.850139   0.000108   0.000008  -0.000518   0.000000
     9  C    0.000531   0.000108   4.738602   0.364430   0.364358   0.000000
    10  C    0.000009   0.000008   0.364430   4.743473  -0.026096   0.000000
    11  C    0.000003  -0.000518   0.364358  -0.026096   4.741303   0.000000
    12  H    0.001283   0.000000   0.000000   0.000000   0.000000   0.629186
    13  H   -0.002185   0.000000   0.000000   0.000000   0.000000  -0.021592
    14  H   -0.002195   0.000000   0.000000   0.000000   0.000000  -0.021590
    15  H   -0.025116  -0.000047   0.000001   0.000000   0.000000  -0.002310
    16  H   -0.025259  -0.019466  -0.003464  -0.000649  -0.000118   0.000000
    17  H   -0.000159   0.000001  -0.001297  -0.000759  -0.000005   0.000000
    18  H    0.000053  -0.000005  -0.002582  -0.000043   0.000017  -0.000001
    19  H    0.000031  -0.002718  -0.024489   0.001159  -0.002518   0.000000
    20  H   -0.000007   0.000000  -0.000014   0.000000   0.000000  -0.000092
    21  H    0.001271   0.000000  -0.000006   0.000000   0.000000   0.000207
    22  H    0.379678   0.000657  -0.000008   0.000004   0.000000   0.000002
    23  H    0.382154  -0.002018  -0.000009   0.000000   0.000000   0.000023
    24  H   -0.002900   0.256774   0.000003  -0.000002   0.000036   0.000001
    25  H   -0.000014  -0.000011   0.381574  -0.025079  -0.024873   0.000000
    26  H   -0.000009   0.000004  -0.020230   0.382136  -0.001990   0.000000
    27  H   -0.000003   0.000000  -0.019793   0.382630   0.001324   0.000000
    28  H    0.000000   0.000000  -0.019808   0.382420  -0.002691   0.000000
    29  H    0.000003  -0.000067  -0.020199  -0.002558   0.382791   0.000000
    30  H   -0.000001  -0.000046  -0.020278   0.001317   0.382331   0.000000
    31  H    0.000000   0.000012  -0.020162  -0.001998   0.381964   0.000000
             13         14         15         16         17         18
     1  C    0.382351   0.382284  -0.024881  -0.000015  -0.000004  -0.000012
     2  C   -0.020745  -0.020343   0.381855   0.001217   0.000066   0.001141
     3  C    0.000005   0.000013  -0.002271   0.379644  -0.002579   0.001155
     4  C    0.000016  -0.000017   0.000191   0.000224   0.382208   0.383118
     5  C    0.000000   0.000000  -0.000098  -0.022492  -0.022537  -0.020392
     6  C   -0.002296   0.001286  -0.024175   0.000024  -0.023483  -0.021735
     7  C   -0.002185  -0.002195  -0.025116  -0.025259  -0.000159   0.000053
     8  O    0.000000   0.000000  -0.000047  -0.019466   0.000001  -0.000005
     9  C    0.000000   0.000000   0.000001  -0.003464  -0.001297  -0.002582
    10  C    0.000000   0.000000   0.000000  -0.000649  -0.000759  -0.000043
    11  C    0.000000   0.000000   0.000000  -0.000118  -0.000005   0.000017
    12  H   -0.021592  -0.021590  -0.002310   0.000000   0.000000  -0.000001
    13  H    0.629317  -0.021722   0.001923  -0.000001   0.000004  -0.000001
    14  H   -0.021722   0.630189  -0.002406  -0.000001   0.000000   0.000000
    15  H    0.001923  -0.002406   0.662908   0.000007  -0.000024  -0.000021
    16  H   -0.000001  -0.000001   0.000007   0.630080   0.000245  -0.000027
    17  H    0.000004   0.000000  -0.000024   0.000245   0.646712  -0.023731
    18  H   -0.000001   0.000000  -0.000021  -0.000027  -0.023731   0.638351
    19  H    0.000000   0.000000  -0.000493   0.001637   0.001991  -0.001810
    20  H    0.000318   0.000070   0.001835   0.000002  -0.005871   0.000222
    21  H    0.000006  -0.000027  -0.005860   0.000001   0.001969  -0.005552
    22  H    0.000377   0.000009   0.002012  -0.004885  -0.000442   0.000007
    23  H   -0.000010   0.000223  -0.001899  -0.000103   0.000001   0.000000
    24  H    0.000000   0.000000   0.000046   0.003622   0.000000  -0.000001
    25  H    0.000000   0.000000   0.000000   0.000027   0.000045   0.000229
    26  H    0.000000   0.000000   0.000000  -0.000425   0.000035   0.000008
    27  H    0.000000   0.000000   0.000000   0.000032  -0.000859  -0.000006
    28  H    0.000000   0.000000   0.000000  -0.000016   0.000005  -0.000008
    29  H    0.000000   0.000000   0.000000  -0.000135   0.000001   0.000000
    30  H    0.000000   0.000000   0.000000   0.000017   0.000000   0.000002
    31  H    0.000000   0.000000   0.000000  -0.000007   0.000000  -0.000001
             19         20         21         22         23         24
     1  C    0.000001  -0.005137   0.000065  -0.001980  -0.002514  -0.000014
     2  C   -0.000227  -0.021227  -0.022774  -0.022887  -0.021227  -0.000090
     3  C   -0.023907   0.000008   0.000015  -0.020660  -0.020775  -0.041754
     4  C   -0.024417  -0.022847  -0.022456  -0.000337   0.000069  -0.000001
     5  C    0.378680   0.001226  -0.000138   0.000372   0.001021  -0.003064
     6  C   -0.002784   0.382583   0.382198  -0.002431   0.001225   0.000022
     7  C    0.000031  -0.000007   0.001271   0.379678   0.382154  -0.002900
     8  O   -0.002718   0.000000   0.000000   0.000657  -0.002018   0.256774
     9  C   -0.024489  -0.000014  -0.000006  -0.000008  -0.000009   0.000003
    10  C    0.001159   0.000000   0.000000   0.000004   0.000000  -0.000002
    11  C   -0.002518   0.000000   0.000000   0.000000   0.000000   0.000036
    12  H    0.000000  -0.000092   0.000207   0.000002   0.000023   0.000001
    13  H    0.000000   0.000318   0.000006   0.000377  -0.000010   0.000000
    14  H    0.000000   0.000070  -0.000027   0.000009   0.000223   0.000000
    15  H   -0.000493   0.001835  -0.005860   0.002012  -0.001899   0.000046
    16  H    0.001637   0.000002   0.000001  -0.004885  -0.000103   0.003622
    17  H    0.001991  -0.005871   0.001969  -0.000442   0.000001   0.000000
    18  H   -0.001810   0.000222  -0.005552   0.000007   0.000000  -0.000001
    19  H    0.659658   0.000015   0.000327  -0.000008  -0.000035   0.000807
    20  H    0.000015   0.642378  -0.024054   0.000269  -0.000021   0.000000
    21  H    0.000327  -0.024054   0.646987   0.000008  -0.000034  -0.000001
    22  H   -0.000008   0.000269   0.000008   0.641753  -0.022186  -0.000013
    23  H   -0.000035  -0.000021  -0.000034  -0.022186   0.626221   0.000093
    24  H    0.000807   0.000000  -0.000001  -0.000013   0.000093   0.613268
    25  H   -0.002814  -0.000001   0.000001   0.000000   0.000000  -0.000001
    26  H   -0.000003   0.000000   0.000000   0.000005   0.000001  -0.000001
    27  H    0.000010   0.000002   0.000000   0.000000   0.000000   0.000000
    28  H   -0.000029   0.000000   0.000000   0.000000   0.000000   0.000000
    29  H    0.000010   0.000000   0.000000   0.000000   0.000000  -0.000012
    30  H    0.000254   0.000000   0.000000   0.000000   0.000000  -0.000019
    31  H    0.000025   0.000000   0.000000   0.000000   0.000000  -0.000002
             25         26         27         28         29         30
     1  C    0.000000   0.000000   0.000000   0.000000   0.000000   0.000000
     2  C   -0.000001   0.000000   0.000000   0.000000   0.000000   0.000000
     3  C    0.001065  -0.000645   0.000048   0.000015  -0.000237  -0.000012
     4  C   -0.002491   0.000013  -0.000873   0.000027  -0.000002   0.000017
     5  C   -0.023654  -0.001502  -0.001521   0.001106  -0.001215  -0.002490
     6  C    0.000012  -0.000002   0.000004   0.000000   0.000000   0.000000
     7  C   -0.000014  -0.000009  -0.000003   0.000000   0.000003  -0.000001
     8  O   -0.000011   0.000004   0.000000   0.000000  -0.000067  -0.000046
     9  C    0.381574  -0.020230  -0.019793  -0.019808  -0.020199  -0.020278
    10  C   -0.025079   0.382136   0.382630   0.382420  -0.002558   0.001317
    11  C   -0.024873  -0.001990   0.001324  -0.002691   0.382791   0.382331
    12  H    0.000000   0.000000   0.000000   0.000000   0.000000   0.000000
    13  H    0.000000   0.000000   0.000000   0.000000   0.000000   0.000000
    14  H    0.000000   0.000000   0.000000   0.000000   0.000000   0.000000
    15  H    0.000000   0.000000   0.000000   0.000000   0.000000   0.000000
    16  H    0.000027  -0.000425   0.000032  -0.000016  -0.000135   0.000017
    17  H    0.000045   0.000035  -0.000859   0.000005   0.000001   0.000000
    18  H    0.000229   0.000008  -0.000006  -0.000008   0.000000   0.000002
    19  H   -0.002814  -0.000003   0.000010  -0.000029   0.000010   0.000254
    20  H   -0.000001   0.000000   0.000002   0.000000   0.000000   0.000000
    21  H    0.000001   0.000000   0.000000   0.000000   0.000000   0.000000
    22  H    0.000000   0.000005   0.000000   0.000000   0.000000   0.000000
    23  H    0.000000   0.000001   0.000000   0.000000   0.000000   0.000000
    24  H   -0.000001  -0.000001   0.000000   0.000000  -0.000012  -0.000019
    25  H    0.655943   0.001919  -0.002431  -0.002391   0.001929  -0.001806
    26  H    0.001919   0.630818  -0.021825  -0.021893   0.000361   0.000006
    27  H   -0.002431  -0.021825   0.631862  -0.022138   0.000016  -0.000037
    28  H   -0.002391  -0.021893  -0.022138   0.630145  -0.000026   0.000036
    29  H    0.001929   0.000361   0.000016  -0.000026   0.619467  -0.021012
    30  H   -0.001806   0.000006  -0.000037   0.000036  -0.021012   0.630522
    31  H   -0.003217  -0.000005   0.000020   0.000093  -0.022089  -0.021886
             31
     1  C    0.000000
     2  C    0.000000
     3  C    0.000004
     4  C   -0.000014
     5  C    0.001161
     6  C    0.000000
     7  C    0.000000
     8  O    0.000012
     9  C   -0.020162
    10  C   -0.001998
    11  C    0.381964
    12  H    0.000000
    13  H    0.000000
    14  H    0.000000
    15  H    0.000000
    16  H   -0.000007
    17  H    0.000000
    18  H   -0.000001
    19  H    0.000025
    20  H    0.000000
    21  H    0.000000
    22  H    0.000000
    23  H    0.000000
    24  H   -0.000002
    25  H   -0.003217
    26  H   -0.000005
    27  H    0.000020
    28  H    0.000093
    29  H   -0.022089
    30  H   -0.021886
    31  H    0.635082
 Mulliken atomic charges:
              1
     1  C   -0.171192
     2  C   -0.025110
     3  C    0.072406
     4  C   -0.102831
     5  C   -0.038483
     6  C   -0.101842
     7  C   -0.115265
     8  O   -0.311876
     9  C   -0.017725
    10  C   -0.176225
    11  C   -0.172914
    12  H    0.054849
    13  H    0.054234
    14  H    0.054226
    15  H    0.038824
    16  H    0.060283
    17  H    0.048467
    18  H    0.051623
    19  H    0.041647
    20  H    0.050344
    21  H    0.047845
    22  H    0.050683
    23  H    0.059800
    24  H    0.173203
    25  H    0.046038
    26  H    0.053223
    27  H    0.053538
    28  H    0.055153
    29  H    0.062971
    30  H    0.053085
    31  H    0.051018
 Sum of Mulliken atomic charges =   0.00000
 Mulliken charges with hydrogens summed into heavy atoms:
              1
     1  C   -0.007883
     2  C    0.013714
     3  C    0.132689
     4  C   -0.002740
     5  C    0.003164
     6  C   -0.003653
     7  C   -0.004781
     8  O   -0.138673
     9  C    0.028313
    10  C   -0.014310
    11  C   -0.005840
 Sum of Mulliken charges with hydrogens summed into heavy atoms =   0.00000
 Electronic spatial extent (au):  <R**2>=           2149.2495
 Charge=              0.0000 electrons
 Dipole moment (field-independent basis, Debye):
    X=             -0.8727    Y=             -1.1495    Z=             -0.4955  Tot=              1.5259
 Quadrupole moment (field-independent basis, Debye-Ang):
   XX=            -68.3398   YY=            -71.5069   ZZ=            -65.7840
   XY=             -2.3425   XZ=              0.3931   YZ=             -1.3378
 Traceless Quadrupole moment (field-independent basis, Debye-Ang):
   XX=              0.2038   YY=             -2.9634   ZZ=              2.7596
   XY=             -2.3425   XZ=              0.3931   YZ=             -1.3378
 Octapole moment (field-independent basis, Debye-Ang**2):
  XXX=              5.6541  YYY=              1.8314  ZZZ=             -2.3900  XYY=             -5.9239
  XXY=              2.7060  XXZ=             -0.1274  XZZ=             -0.6573  YZZ=              6.3633
  YYZ=             -3.6775  XYZ=              2.3478
 Hexadecapole moment (field-independent basis, Debye-Ang**3):
 XXXX=          -1926.6539 YYYY=           -591.0229 ZZZZ=           -261.7069 XXXY=             -2.3711
 XXXZ=              1.2765 YYYX=            -11.8565 YYYZ=             -9.6506 ZZZX=             -0.0320
 ZZZY=             -3.8446 XXYY=           -414.1488 XXZZ=           -364.6934 YYZZ=           -131.4644
 XXYZ=              2.9993 YYXZ=             -0.1129 ZZXY=              4.7095
 N-N= 6.933631909642D+02 E-N=-2.458665519313D+03  KE= 4.555536410869D+02
 ******************************Gaussian NBO Version 3.1******************************
             N A T U R A L   A T O M I C   O R B I T A L   A N D
          N A T U R A L   B O N D   O R B I T A L   A N A L Y S I S
 ******************************Gaussian NBO Version 3.1******************************
       /RESON  / : Allow strongly delocalized NBO set
       /NLMO   / : Form Natural Localized Molecular Orbitals
       /NMR /    : Analyze NMR Sheilding Tensor 

 Analyzing the SCF density

 Job title: comment                                                         

 Storage needed:     19864 in NPA,     23691 in NBO,     45933 in NLMO (  33549317 available)


 NATURAL POPULATIONS:  Natural atomic orbital occupancies 
                                                          
   NAO  Atom  No  lang   Type(AO)    Occupancy      Energy
 ----------------------------------------------------------
     1    C    1  S      Cor( 1S)     1.99997     -10.96857
     2    C    1  S      Val( 2S)     1.07974      -0.18480
     3    C    1  px     Val( 2p)     0.99018       0.08546
     4    C    1  py     Val( 2p)     1.02931       0.08034
     5    C    1  pz     Val( 2p)     1.02721       0.08110

     6    C    2  S      Cor( 1S)     1.99997     -10.99266
     7    C    2  S      Val( 2S)     1.07949      -0.19608
     8    C    2  px     Val( 2p)     0.95782       0.10424
     9    C    2  py     Val( 2p)     0.96797       0.10208
    10    C    2  pz     Val( 2p)     0.98125       0.10085

    11    C    3  S      Cor( 1S)     1.99989     -11.03374
    12    C    3  S      Val( 2S)     1.09170      -0.21846
    13    C    3  px     Val( 2p)     0.96553       0.09025
    14    C    3  py     Val( 2p)     0.84375       0.12056
    15    C    3  pz     Val( 2p)     0.95939       0.09133

    16    C    4  S      Cor( 1S)     1.99996     -10.97634
    17    C    4  S      Val( 2S)     1.08473      -0.19148
    18    C    4  px     Val( 2p)     0.97410       0.09617
    19    C    4  py     Val( 2p)     0.98945       0.09442
    20    C    4  pz     Val( 2p)     1.01753       0.08938

    21    C    5  S      Cor( 1S)     1.99996     -10.98931
    22    C    5  S      Val( 2S)     1.10292      -0.21286
    23    C    5  px     Val( 2p)     0.96406       0.10123
    24    C    5  py     Val( 2p)     0.96516       0.10157
    25    C    5  pz     Val( 2p)     0.98539       0.09813

    26    C    6  S      Cor( 1S)     1.99996     -10.97627
    27    C    6  S      Val( 2S)     1.08601      -0.19199
    28    C    6  px     Val( 2p)     0.97876       0.09608
    29    C    6  py     Val( 2p)     0.98158       0.09722
    30    C    6  pz     Val( 2p)     1.01778       0.08873

    31    C    7  S      Cor( 1S)     1.99996     -10.97560
    32    C    7  S      Val( 2S)     1.09492      -0.20095
    33    C    7  px     Val( 2p)     0.98273       0.08779
    34    C    7  py     Val( 2p)     1.01702       0.08719
    35    C    7  pz     Val( 2p)     0.99724       0.08765

    36    O    8  S      Cor( 1S)     1.99999     -20.13904
    37    O    8  S      Val( 2S)     1.75086      -0.99671
    38    O    8  px     Val( 2p)     1.75987      -0.28663
    39    O    8  py     Val( 2p)     1.44141      -0.15334
    40    O    8  pz     Val( 2p)     1.38073      -0.12579

    41    C    9  S      Cor( 1S)     1.99996     -10.98977
    42    C    9  S      Val( 2S)     1.08463      -0.19437
    43    C    9  px     Val( 2p)     0.94908       0.11425
    44    C    9  py     Val( 2p)     0.97380       0.10804
    45    C    9  pz     Val( 2p)     0.96919       0.10962

    46    C   10  S      Cor( 1S)     1.99997     -10.96273
    47    C   10  S      Val( 2S)     1.07971      -0.17984
    48    C   10  px     Val( 2p)     1.02764       0.08290
    49    C   10  py     Val( 2p)     1.02340       0.08707
    50    C   10  pz     Val( 2p)     1.00169       0.08985

    51    C   11  S      Cor( 1S)     1.99997     -10.95730
    52    C   11  S      Val( 2S)     1.08078      -0.17474
    53    C   11  px     Val( 2p)     1.01378       0.09351
    54    C   11  py     Val( 2p)     1.00565       0.09473
    55    C   11  pz     Val( 2p)     1.02945       0.09065

    56    H   12  S      Val( 1S)     0.96250       0.07165

    57    H   13  S      Val( 1S)     0.96314       0.07172

    58    H   14  S      Val( 1S)     0.96315       0.07189

    59    H   15  S      Val( 1S)     0.98466       0.05448

    60    H   16  S      Val( 1S)     0.97560       0.06072

    61    H   17  S      Val( 1S)     0.97242       0.06868

    62    H   18  S      Val( 1S)     0.96912       0.06910

    63    H   19  S      Val( 1S)     0.98254       0.05616

    64    H   20  S      Val( 1S)     0.97059       0.06883

    65    H   21  S      Val( 1S)     0.97298       0.06731

    66    H   22  S      Val( 1S)     0.96940       0.06590

    67    H   23  S      Val( 1S)     0.96093       0.07164

    68    H   24  S      Val( 1S)     0.81460       0.07595

    69    H   25  S      Val( 1S)     0.97914       0.06608

    70    H   26  S      Val( 1S)     0.96410       0.07783

    71    H   27  S      Val( 1S)     0.96383       0.07730

    72    H   28  S      Val( 1S)     0.96178       0.07658

    73    H   29  S      Val( 1S)     0.95545       0.09138

    74    H   30  S      Val( 1S)     0.96412       0.08226

    75    H   31  S      Val( 1S)     0.96599       0.07897


 Summary of Natural Population Analysis:                  
                                                          
                                       Natural Population 
                Natural  -----------------------------------------------
    Atom  No    Charge         Core      Valence    Rydberg      Total
 -----------------------------------------------------------------------
      C    1   -0.12641      1.99997     4.12644    0.00000     6.12641
      C    2    0.01350      1.99997     3.98653    0.00000     5.98650
      C    3    0.13974      1.99989     3.86037    0.00000     5.86026
      C    4   -0.06577      1.99996     4.06581    0.00000     6.06577
      C    5   -0.01747      1.99996     4.01752    0.00000     6.01747
      C    6   -0.06409      1.99996     4.06413    0.00000     6.06409
      C    7   -0.09187      1.99996     4.09190    0.00000     6.09187
      O    8   -0.33286      1.99999     6.33287    0.00000     8.33286
      C    9    0.02334      1.99996     3.97669    0.00000     5.97666
      C   10   -0.13242      1.99997     4.13245    0.00000     6.13242
      C   11   -0.12963      1.99997     4.12966    0.00000     6.12963
      H   12    0.03750      0.00000     0.96250    0.00000     0.96250
      H   13    0.03686      0.00000     0.96314    0.00000     0.96314
      H   14    0.03685      0.00000     0.96315    0.00000     0.96315
      H   15    0.01534      0.00000     0.98466    0.00000     0.98466
      H   16    0.02440      0.00000     0.97560    0.00000     0.97560
      H   17    0.02758      0.00000     0.97242    0.00000     0.97242
      H   18    0.03088      0.00000     0.96912    0.00000     0.96912
      H   19    0.01746      0.00000     0.98254    0.00000     0.98254
      H   20    0.02941      0.00000     0.97059    0.00000     0.97059
      H   21    0.02702      0.00000     0.97298    0.00000     0.97298
      H   22    0.03060      0.00000     0.96940    0.00000     0.96940
      H   23    0.03907      0.00000     0.96093    0.00000     0.96093
      H   24    0.18540      0.00000     0.81460    0.00000     0.81460
      H   25    0.02086      0.00000     0.97914    0.00000     0.97914
      H   26    0.03590      0.00000     0.96410    0.00000     0.96410
      H   27    0.03617      0.00000     0.96383    0.00000     0.96383
      H   28    0.03822      0.00000     0.96178    0.00000     0.96178
      H   29    0.04455      0.00000     0.95545    0.00000     0.95545
      H   30    0.03588      0.00000     0.96412    0.00000     0.96412
      H   31    0.03401      0.00000     0.96599    0.00000     0.96599
 =======================================================================
   * Total *    0.00000     21.99956    66.00044    0.00000    88.00000

                                 Natural Population      
 --------------------------------------------------------
   Core                      21.99956 ( 99.9980% of  22)
   Valence                   66.00044 (100.0007% of  66)
   Natural Minimal Basis     88.00000 (100.0000% of  88)
   Natural Rydberg Basis      0.00000 (  0.0000% of  88)
 --------------------------------------------------------

    Atom  No          Natural Electron Configuration
 ----------------------------------------------------------------------------
      C    1      [core]2S( 1.08)2p( 3.05)
      C    2      [core]2S( 1.08)2p( 2.91)
      C    3      [core]2S( 1.09)2p( 2.77)
      C    4      [core]2S( 1.08)2p( 2.98)
      C    5      [core]2S( 1.10)2p( 2.91)
      C    6      [core]2S( 1.09)2p( 2.98)
      C    7      [core]2S( 1.09)2p( 3.00)
      O    8      [core]2S( 1.75)2p( 4.58)
      C    9      [core]2S( 1.08)2p( 2.89)
      C   10      [core]2S( 1.08)2p( 3.05)
      C   11      [core]2S( 1.08)2p( 3.05)
      H   12            1S( 0.96)
      H   13            1S( 0.96)
      H   14            1S( 0.96)
      H   15            1S( 0.98)
      H   16            1S( 0.98)
      H   17            1S( 0.97)
      H   18            1S( 0.97)
      H   19            1S( 0.98)
      H   20            1S( 0.97)
      H   21            1S( 0.97)
      H   22            1S( 0.97)
      H   23            1S( 0.96)
      H   24            1S( 0.81)
      H   25            1S( 0.98)
      H   26            1S( 0.96)
      H   27            1S( 0.96)
      H   28            1S( 0.96)
      H   29            1S( 0.96)
      H   30            1S( 0.96)
      H   31            1S( 0.97)


 NATURAL BOND ORBITAL ANALYSIS:

                       Occupancies       Lewis Structure    Low   High
           Occ.    -------------------  -----------------   occ   occ
  Cycle   Thresh.   Lewis   Non-Lewis     CR  BD  3C  LP    (L)   (NL)   Dev
 =============================================================================
   1(1)    1.90    87.64170   0.35830     11  31   0   2     0      0    0.02
 -----------------------------------------------------------------------------

 Structure accepted: No low occupancy Lewis orbitals

 --------------------------------------------------------
   Core                     21.99956 ( 99.998% of  22)
   Valence Lewis            65.64214 ( 99.458% of  66)
  ==================       ============================
   Total Lewis              87.64170 ( 99.593% of  88)
  -----------------------------------------------------
   Valence non-Lewis         0.35830 (  0.407% of  88)
   Rydberg non-Lewis         0.00000 (  0.000% of  88)
  ==================       ============================
   Total non-Lewis           0.35830 (  0.407% of  88)
 --------------------------------------------------------


       (Occupancy)   Bond orbital/ Coefficients/ Hybrids
 ---------------------------------------------------------------------------------
     1. (1.98925) BD ( 1) C   1 - C   2  
                ( 50.74%)   0.7123* C   1 s( 25.71%)p 2.89( 74.29%)
                                            0.0001  0.5071  0.8457  0.0014 -0.1664
                ( 49.26%)   0.7019* C   2 s( 25.33%)p 2.95( 74.67%)
                                            0.0000  0.5033 -0.8428 -0.0161  0.1902
     2. (1.99496) BD ( 1) C   1 - H  12  
                ( 51.88%)   0.7203* C   1 s( 24.76%)p 3.04( 75.24%)
                                            0.0000  0.4976 -0.4260 -0.3819 -0.6520
                ( 48.12%)   0.6937* H  12 s(100.00%)
                                            1.0000
     3. (1.99523) BD ( 1) C   1 - H  13  
                ( 51.88%)   0.7203* C   1 s( 24.83%)p 3.03( 75.17%)
                                            0.0000  0.4983 -0.1535 -0.4338  0.7348
                ( 48.12%)   0.6937* H  13 s(100.00%)
                                            1.0000
     4. (1.99496) BD ( 1) C   1 - H  14  
                ( 51.86%)   0.7201* C   1 s( 24.69%)p 3.05( 75.31%)
                                            0.0000  0.4969 -0.2824  0.8161  0.0858
                ( 48.14%)   0.6939* H  14 s(100.00%)
                                            1.0000
     5. (1.98533) BD ( 1) C   2 - C   6  
                ( 49.69%)   0.7049* C   2 s( 25.11%)p 2.98( 74.89%)
                                            0.0000  0.5011  0.2886 -0.8076 -0.1156
                ( 50.31%)   0.7093* C   6 s( 25.57%)p 2.91( 74.43%)
                                            0.0001  0.5057 -0.2693  0.8043  0.1578
     6. (1.98618) BD ( 1) C   2 - C   7  
                ( 49.67%)   0.7047* C   2 s( 25.06%)p 2.99( 74.94%)
                                            0.0000  0.5006  0.4377  0.3745  0.6462
                ( 50.33%)   0.7095* C   7 s( 24.94%)p 3.01( 75.06%)
                                            0.0001  0.4994 -0.4382 -0.3797 -0.6437
     7. (1.98508) BD ( 1) C   2 - H  15  
                ( 50.70%)   0.7121* C   2 s( 24.50%)p 3.08( 75.50%)
                                            0.0000  0.4950  0.1221  0.4552 -0.7300
                ( 49.30%)   0.7021* H  15 s(100.00%)
                                            1.0000
     8. (1.98283) BD ( 1) C   3 - C   5  
                ( 50.02%)   0.7072* C   3 s( 26.07%)p 2.84( 73.93%)
                                            0.0001  0.5106  0.2764 -0.6381 -0.5057
                ( 49.98%)   0.7070* C   5 s( 25.29%)p 2.95( 74.71%)
                                            0.0000  0.5029 -0.2714  0.6192  0.5385
     9. (1.98658) BD ( 1) C   3 - C   7  
                ( 49.39%)   0.7028* C   3 s( 25.60%)p 2.91( 74.40%)
                                            0.0000  0.5059 -0.8408 -0.0930  0.1686
                ( 50.61%)   0.7114* C   7 s( 25.05%)p 2.99( 74.95%)
                                            0.0000  0.5005  0.8362  0.0597 -0.2161
    10. (1.98834) BD ( 1) C   3 - O   8  
                ( 41.03%)   0.6406* C   3 s( 21.91%)p 3.56( 78.09%)
                                            0.0000  0.4681  0.1109  0.7637 -0.4304
                ( 58.97%)   0.7679* O   8 s( 16.35%)p 5.12( 83.65%)
                                            0.0000  0.4043 -0.1722 -0.8239  0.3579
    11. (1.98639) BD ( 1) C   3 - H  16  
                ( 51.34%)   0.7165* C   3 s( 26.42%)p 2.79( 73.58%)
                                            0.0000  0.5140  0.4520  0.0298  0.7284
                ( 48.66%)   0.6976* H  16 s(100.00%)
                                            1.0000
    12. (1.98447) BD ( 1) C   4 - C   5  
                ( 50.45%)   0.7103* C   4 s( 25.36%)p 2.94( 74.64%)
                                            0.0001  0.5036  0.4492  0.7247 -0.1394
                ( 49.55%)   0.7039* C   5 s( 25.02%)p 3.00( 74.98%)
                                            0.0000  0.5002 -0.4340 -0.7328  0.1566
    13. (1.98905) BD ( 1) C   4 - C   6  
                ( 49.95%)   0.7067* C   4 s( 25.08%)p 2.99( 74.92%)
                                            0.0000  0.5008 -0.8328  0.1304 -0.1967
                ( 50.05%)   0.7075* C   6 s( 25.34%)p 2.95( 74.66%)
                                            0.0000  0.5033  0.8401 -0.0722  0.1890
    14. (1.99088) BD ( 1) C   4 - H  17  
                ( 51.40%)   0.7169* C   4 s( 24.44%)p 3.09( 75.56%)
                                            0.0000  0.4944  0.0646 -0.2225  0.8378
                ( 48.60%)   0.6971* H  17 s(100.00%)
                                            1.0000
    15. (1.99024) BD ( 1) C   4 - H  18  
                ( 51.53%)   0.7178* C   4 s( 25.12%)p 2.98( 74.88%)
                                            0.0000  0.5012  0.3170 -0.6390 -0.4899
                ( 48.47%)   0.6962* H  18 s(100.00%)
                                            1.0000
    16. (1.97943) BD ( 1) C   5 - C   9  
                ( 50.31%)   0.7093* C   5 s( 25.50%)p 2.92( 74.50%)
                                            0.0001  0.5049  0.8459 -0.1332  0.1080
                ( 49.69%)   0.7049* C   9 s( 25.37%)p 2.94( 74.63%)
                                            0.0001  0.5037 -0.8484  0.1624 -0.0081
    17. (1.98222) BD ( 1) C   5 - H  19  
                ( 50.75%)   0.7124* C   5 s( 24.19%)p 3.13( 75.81%)
                                            0.0000  0.4918 -0.1496  0.2489 -0.8208
                ( 49.25%)   0.7018* H  19 s(100.00%)
                                            1.0000
    18. (1.99118) BD ( 1) C   6 - H  20  
                ( 51.48%)   0.7175* C   6 s( 24.76%)p 3.04( 75.24%)
                                            0.0000  0.4976 -0.4547 -0.5597  0.4820
                ( 48.52%)   0.6966* H  20 s(100.00%)
                                            1.0000
    19. (1.99186) BD ( 1) C   6 - H  21  
                ( 51.34%)   0.7166* C   6 s( 24.33%)p 3.11( 75.67%)
                                            0.0000  0.4933 -0.1224 -0.1862 -0.8409
                ( 48.66%)   0.6975* H  21 s(100.00%)
                                            1.0000
    20. (1.98997) BD ( 1) C   7 - H  22  
                ( 51.51%)   0.7177* C   7 s( 24.53%)p 3.08( 75.47%)
                                            0.0000  0.4952 -0.0762 -0.4808  0.7196
                ( 48.49%)   0.6963* H  22 s(100.00%)
                                            1.0000
    21. (1.98824) BD ( 1) C   7 - H  23  
                ( 51.90%)   0.7204* C   7 s( 25.48%)p 2.92( 74.52%)
                                            0.0000  0.5048 -0.3209  0.7881  0.1452
                ( 48.10%)   0.6935* H  23 s(100.00%)
                                            1.0000
    22. (1.98918) BD ( 1) O   8 - H  24  
                ( 59.32%)   0.7702* O   8 s( 16.77%)p 4.96( 83.23%)
                                            0.0000 -0.4095  0.5100  0.0210  0.7562
                ( 40.68%)   0.6378* H  24 s(100.00%)
                                           -1.0000
    23. (1.99031) BD ( 1) C   9 - C  10  
                ( 48.97%)   0.6998* C   9 s( 25.26%)p 2.96( 74.74%)
                                            0.0000  0.5026  0.2357 -0.2886  0.7801
                ( 51.03%)   0.7144* C  10 s( 25.88%)p 2.86( 74.12%)
                                            0.0001  0.5087 -0.2774  0.3107 -0.7535
    24. (1.98936) BD ( 1) C   9 - C  11  
                ( 49.31%)   0.7022* C   9 s( 25.17%)p 2.97( 74.83%)
                                            0.0000  0.5017  0.4379  0.7218 -0.1884
                ( 50.69%)   0.7120* C  11 s( 25.67%)p 2.90( 74.33%)
                                            0.0001  0.5067 -0.4681 -0.6930  0.2094
    25. (1.98389) BD ( 1) C   9 - H  25  
                ( 50.92%)   0.7136* C   9 s( 24.20%)p 3.13( 75.80%)
                                            0.0000  0.4919  0.1814 -0.6077 -0.5965
                ( 49.08%)   0.7006* H  25 s(100.00%)
                                            1.0000
    26. (1.99461) BD ( 1) C  10 - H  26  
                ( 51.84%)   0.7200* C  10 s( 24.88%)p 3.02( 75.12%)
                                            0.0000  0.4988 -0.1637  0.5699  0.6321
                ( 48.16%)   0.6940* H  26 s(100.00%)
                                            1.0000
    27. (1.99484) BD ( 1) C  10 - H  27  
                ( 51.84%)   0.7200* C  10 s( 24.73%)p 3.04( 75.27%)
                                            0.0000  0.4972 -0.4043 -0.7471  0.1765
                ( 48.16%)   0.6940* H  27 s(100.00%)
                                            1.0000
    28. (1.99415) BD ( 1) C  10 - H  28  
                ( 51.89%)   0.7204* C  10 s( 24.51%)p 3.08( 75.49%)
                                            0.0000  0.4951  0.8561 -0.1431 -0.0399
                ( 48.11%)   0.6936* H  28 s(100.00%)
                                            1.0000
    29. (1.99560) BD ( 1) C  11 - H  29  
                ( 52.28%)   0.7231* C  11 s( 24.98%)p 3.00( 75.02%)
                                            0.0000  0.4998 -0.0836  0.6069  0.6123
                ( 47.72%)   0.6908* H  29 s(100.00%)
                                            1.0000
    30. (1.99506) BD ( 1) C  11 - H  30  
                ( 51.81%)   0.7198* C  11 s( 24.80%)p 3.03( 75.20%)
                                            0.0000  0.4980 -0.2721  0.3184 -0.7593
                ( 48.19%)   0.6942* H  30 s(100.00%)
                                            1.0000
    31. (1.99461) BD ( 1) C  11 - H  31  
                ( 51.70%)   0.7190* C  11 s( 24.55%)p 3.07( 75.45%)
                                            0.0000  0.4954  0.8366 -0.2236 -0.0687
                ( 48.30%)   0.6950* H  31 s(100.00%)
                                            1.0000
    32. (1.99997) CR ( 1) C   1           s(100.00%)
                                            1.0000  0.0000 -0.0001  0.0000  0.0000
    33. (1.99997) CR ( 1) C   2           s(100.00%)
                                            1.0000  0.0000  0.0000  0.0000  0.0000
    34. (1.99989) CR ( 1) C   3           s(100.00%)
                                            1.0000  0.0000  0.0000  0.0001  0.0000
    35. (1.99996) CR ( 1) C   4           s(100.00%)
                                            1.0000  0.0000  0.0000 -0.0001  0.0000
    36. (1.99995) CR ( 1) C   5           s(100.00%)
                                            1.0000  0.0000  0.0000  0.0000  0.0000
    37. (1.99996) CR ( 1) C   6           s(100.00%)
                                            1.0000  0.0000  0.0000 -0.0001  0.0000
    38. (1.99996) CR ( 1) C   7           s(100.00%)
                                            1.0000  0.0000  0.0000  0.0001  0.0001
    39. (1.99999) CR ( 1) O   8           s(100.00%)
                                            1.0000  0.0000  0.0000  0.0000  0.0000
    40. (1.99996) CR ( 1) C   9           s(100.00%)
                                            1.0000  0.0000  0.0001  0.0000  0.0000
    41. (1.99997) CR ( 1) C  10           s(100.00%)
                                            1.0000  0.0000  0.0001  0.0000  0.0000
    42. (1.99997) CR ( 1) C  11           s(100.00%)
                                            1.0000  0.0000  0.0001  0.0001  0.0000
    43. (1.99327) LP ( 1) O   8           s( 66.88%)p 0.50( 33.12%)
                                            0.0000  0.8178  0.3344  0.4208  0.2057
    44. (1.97459) LP ( 2) O   8           s(  0.00%)p 1.00(100.00%)
                                            0.0000  0.0064  0.7736 -0.3791 -0.5078
    45. (0.00961) BD*( 1) C   1 - C   2  
                ( 49.26%)   0.7019* C   1 s( 25.71%)p 2.89( 74.29%)
                                           -0.0001 -0.5071 -0.8457 -0.0014  0.1664
                ( 50.74%)  -0.7123* C   2 s( 25.33%)p 2.95( 74.67%)
                                            0.0000 -0.5033  0.8428  0.0161 -0.1902
    46. (0.00502) BD*( 1) C   1 - H  12  
                ( 48.12%)   0.6937* C   1 s( 24.76%)p 3.04( 75.24%)
                                            0.0000 -0.4976  0.4260  0.3819  0.6520
                ( 51.88%)  -0.7203* H  12 s(100.00%)
                                           -1.0000
    47. (0.00583) BD*( 1) C   1 - H  13  
                ( 48.12%)   0.6937* C   1 s( 24.83%)p 3.03( 75.17%)
                                            0.0000 -0.4983  0.1535  0.4338 -0.7348
                ( 51.88%)  -0.7203* H  13 s(100.00%)
                                           -1.0000
    48. (0.00519) BD*( 1) C   1 - H  14  
                ( 48.14%)   0.6939* C   1 s( 24.69%)p 3.05( 75.31%)
                                            0.0000 -0.4969  0.2824 -0.8161 -0.0858
                ( 51.86%)  -0.7201* H  14 s(100.00%)
                                           -1.0000
    49. (0.01654) BD*( 1) C   2 - C   6  
                ( 50.31%)   0.7093* C   2 s( 25.11%)p 2.98( 74.89%)
                                            0.0000  0.5011  0.2886 -0.8076 -0.1156
                ( 49.69%)  -0.7049* C   6 s( 25.57%)p 2.91( 74.43%)
                                            0.0001  0.5057 -0.2693  0.8043  0.1578
    50. (0.01572) BD*( 1) C   2 - C   7  
                ( 50.33%)   0.7095* C   2 s( 25.06%)p 2.99( 74.94%)
                                            0.0000  0.5006  0.4377  0.3745  0.6462
                ( 49.67%)  -0.7047* C   7 s( 24.94%)p 3.01( 75.06%)
                                            0.0001  0.4994 -0.4382 -0.3797 -0.6437
    51. (0.01204) BD*( 1) C   2 - H  15  
                ( 49.30%)   0.7021* C   2 s( 24.50%)p 3.08( 75.50%)
                                            0.0000 -0.4950 -0.1221 -0.4552  0.7300
                ( 50.70%)  -0.7121* H  15 s(100.00%)
                                           -1.0000
    52. (0.03298) BD*( 1) C   3 - C   5  
                ( 49.98%)   0.7070* C   3 s( 26.07%)p 2.84( 73.93%)
                                           -0.0001 -0.5106 -0.2764  0.6381  0.5057
                ( 50.02%)  -0.7072* C   5 s( 25.29%)p 2.95( 74.71%)
                                            0.0000 -0.5029  0.2714 -0.6192 -0.5385
    53. (0.02734) BD*( 1) C   3 - C   7  
                ( 50.61%)   0.7114* C   3 s( 25.60%)p 2.91( 74.40%)
                                            0.0000  0.5059 -0.8408 -0.0930  0.1686
                ( 49.39%)  -0.7028* C   7 s( 25.05%)p 2.99( 74.95%)
                                            0.0000  0.5005  0.8362  0.0597 -0.2161
    54. (0.02176) BD*( 1) C   3 - O   8  
                ( 58.97%)   0.7679* C   3 s( 21.91%)p 3.56( 78.09%)
                                            0.0000  0.4681  0.1109  0.7637 -0.4304
                ( 41.03%)  -0.6406* O   8 s( 16.35%)p 5.12( 83.65%)
                                            0.0000  0.4043 -0.1722 -0.8239  0.3579
    55. (0.01765) BD*( 1) C   3 - H  16  
                ( 48.66%)   0.6976* C   3 s( 26.42%)p 2.79( 73.58%)
                                            0.0000 -0.5140 -0.4520 -0.0298 -0.7284
                ( 51.34%)  -0.7165* H  16 s(100.00%)
                                           -1.0000
    56. (0.01540) BD*( 1) C   4 - C   5  
                ( 49.55%)   0.7039* C   4 s( 25.36%)p 2.94( 74.64%)
                                           -0.0001 -0.5036 -0.4492 -0.7247  0.1394
                ( 50.45%)  -0.7103* C   5 s( 25.02%)p 3.00( 74.98%)
                                            0.0000 -0.5002  0.4340  0.7328 -0.1566
    57. (0.01187) BD*( 1) C   4 - C   6  
                ( 50.05%)   0.7075* C   4 s( 25.08%)p 2.99( 74.92%)
                                            0.0000  0.5008 -0.8328  0.1304 -0.1967
                ( 49.95%)  -0.7067* C   6 s( 25.34%)p 2.95( 74.66%)
                                            0.0000  0.5033  0.8401 -0.0722  0.1890
    58. (0.00950) BD*( 1) C   4 - H  17  
                ( 48.60%)   0.6971* C   4 s( 24.44%)p 3.09( 75.56%)
                                            0.0000 -0.4944 -0.0646  0.2225 -0.8378
                ( 51.40%)  -0.7169* H  17 s(100.00%)
                                           -1.0000
    59. (0.00851) BD*( 1) C   4 - H  18  
                ( 48.47%)   0.6962* C   4 s( 25.12%)p 2.98( 74.88%)
                                            0.0000 -0.5012 -0.3170  0.6390  0.4899
                ( 51.53%)  -0.7178* H  18 s(100.00%)
                                           -1.0000
    60. (0.02222) BD*( 1) C   5 - C   9  
                ( 49.69%)   0.7049* C   5 s( 25.50%)p 2.92( 74.50%)
                                           -0.0001 -0.5049 -0.8459  0.1332 -0.1080
                ( 50.31%)  -0.7093* C   9 s( 25.37%)p 2.94( 74.63%)
                                           -0.0001 -0.5037  0.8484 -0.1624  0.0081
    61. (0.01234) BD*( 1) C   5 - H  19  
                ( 49.25%)   0.7018* C   5 s( 24.19%)p 3.13( 75.81%)
                                            0.0000 -0.4918  0.1496 -0.2489  0.8208
                ( 50.75%)  -0.7124* H  19 s(100.00%)
                                           -1.0000
    62. (0.00870) BD*( 1) C   6 - H  20  
                ( 48.52%)   0.6966* C   6 s( 24.76%)p 3.04( 75.24%)
                                            0.0000 -0.4976  0.4547  0.5597 -0.4820
                ( 51.48%)  -0.7175* H  20 s(100.00%)
                                           -1.0000
    63. (0.00747) BD*( 1) C   6 - H  21  
                ( 48.66%)   0.6975* C   6 s( 24.33%)p 3.11( 75.67%)
                                            0.0000 -0.4933  0.1224  0.1862  0.8409
                ( 51.34%)  -0.7166* H  21 s(100.00%)
                                           -1.0000
    64. (0.00871) BD*( 1) C   7 - H  22  
                ( 48.49%)   0.6963* C   7 s( 24.53%)p 3.08( 75.47%)
                                            0.0000 -0.4952  0.0762  0.4808 -0.7196
                ( 51.51%)  -0.7177* H  22 s(100.00%)
                                           -1.0000
    65. (0.00885) BD*( 1) C   7 - H  23  
                ( 48.10%)   0.6935* C   7 s( 25.48%)p 2.92( 74.52%)
                                            0.0000 -0.5048  0.3209 -0.7881 -0.1452
                ( 51.90%)  -0.7204* H  23 s(100.00%)
                                           -1.0000
    66. (0.00902) BD*( 1) O   8 - H  24  
                ( 40.68%)   0.6378* O   8 s( 16.77%)p 4.96( 83.23%)
                                            0.0000  0.4095 -0.5100 -0.0210 -0.7562
                ( 59.32%)  -0.7702* H  24 s(100.00%)
                                            1.0000
    67. (0.01108) BD*( 1) C   9 - C  10  
                ( 51.03%)   0.7144* C   9 s( 25.26%)p 2.96( 74.74%)
                                            0.0000  0.5026  0.2357 -0.2886  0.7801
                ( 48.97%)  -0.6998* C  10 s( 25.88%)p 2.86( 74.12%)
                                            0.0001  0.5087 -0.2774  0.3107 -0.7535
    68. (0.01036) BD*( 1) C   9 - C  11  
                ( 50.69%)   0.7120* C   9 s( 25.17%)p 2.97( 74.83%)
                                            0.0000  0.5017  0.4379  0.7218 -0.1884
                ( 49.31%)  -0.7022* C  11 s( 25.67%)p 2.90( 74.33%)
                                            0.0001  0.5067 -0.4681 -0.6930  0.2094
    69. (0.01070) BD*( 1) C   9 - H  25  
                ( 49.08%)   0.7006* C   9 s( 24.20%)p 3.13( 75.80%)
                                            0.0000 -0.4919 -0.1814  0.6077  0.5965
                ( 50.92%)  -0.7136* H  25 s(100.00%)
                                           -1.0000
    70. (0.00672) BD*( 1) C  10 - H  26  
                ( 48.16%)   0.6940* C  10 s( 24.88%)p 3.02( 75.12%)
                                            0.0000 -0.4988  0.1637 -0.5699 -0.6321
                ( 51.84%)  -0.7200* H  26 s(100.00%)
                                           -1.0000
    71. (0.00595) BD*( 1) C  10 - H  27  
                ( 48.16%)   0.6940* C  10 s( 24.73%)p 3.04( 75.27%)
                                            0.0000 -0.4972  0.4043  0.7471 -0.1765
                ( 51.84%)  -0.7200* H  27 s(100.00%)
                                           -1.0000
    72. (0.00481) BD*( 1) C  10 - H  28  
[...]
   29      -0.2605       -1.0891       0.8286        -0.9906       0.7301
   39     271.1720       -0.0062     271.1782        -0.0026     271.1746
   43      32.8400        1.9472      30.8928        -4.6313      37.4713
   44      -2.6911      -41.4053      38.7142       -42.6233      39.9322
 Sum      344.9183      -27.8345     372.7528       -33.6436     378.5619

 Contributions to Isotropic shielding for atom    9 (   212.5676 ppm):
                         Standard Origin              Atomic Origin
 NLMO      Total    Paramagnetic  Diamagnetic   Paramagnetic  Diamagnetic
   11      -0.0942       -0.3894       0.2952        -1.0314       0.9372
   15      -0.1105       -0.4797       0.3692        -1.0209       0.9104
   16       5.6058       -9.8461      15.4519        -2.0335       7.6393
   17       0.3879       -0.0333       0.4212        -0.6470       1.0349
   23      -1.2736       -6.0035       4.7299        -8.7698       7.4962
   24      -1.5647       -5.5694       4.0047        -9.2002       7.6355
   25       5.2256       -0.9572       6.1828        -5.5992      10.8248
   26       0.9831       -0.2854       1.2685        -0.0478       1.0308
   27       0.6348       -0.5386       1.1734        -0.3694       1.0042
   28       0.6090       -0.2221       0.8310        -0.4219       1.0309
   29       0.9629       -0.3647       1.3276        -0.0911       1.0540
   30       0.6506       -0.6668       1.3173        -0.3943       1.0448
   31       0.6316       -0.2610       0.8926        -0.3977       1.0293
   40     199.9270       -0.0023     199.9292         0.0028     199.9242
 Sum      212.5752      -25.6195     238.1947       -30.0212     242.5964

 Contributions to Isotropic shielding for atom   10 (   224.4096 ppm):
                         Standard Origin              Atomic Origin
 NLMO      Total    Paramagnetic  Diamagnetic   Paramagnetic  Diamagnetic
   23       4.4424       -9.7298      14.1722        -3.5654       8.0078
   24      -0.4291        0.0520      -0.4811        -1.1093       0.6802
   25       0.3059        0.0189       0.2870        -0.7034       1.0093
   26       6.8196       -4.9165      11.7361        -4.3162      11.1358
   27       6.6094       -4.0354      10.6448        -4.4958      11.1052
   28       5.9559        4.0518       1.9041        -5.1591      11.1149
   41     200.0736       -0.0029     200.0765         0.0018     200.0718
 Sum      223.7777      -14.5618     238.3395       -19.3475     243.1252

 Contributions to Isotropic shielding for atom   11 (   221.2443 ppm):
                         Standard Origin              Atomic Origin
 NLMO      Total    Paramagnetic  Diamagnetic   Paramagnetic  Diamagnetic
   10       0.0329       -0.1381       0.1710        -1.1336       1.1665
   23      -0.4997        0.0154      -0.5152        -1.1901       0.6904
   24       4.2888      -10.5560      14.8448        -3.5400       7.8288
   25       0.2929        0.1169       0.1760        -0.7262       1.0190
   28      -0.1077       -0.6160       0.5083        -1.0320       0.9243
   29       6.3137       -5.0627      11.3764        -4.9938      11.3075
   30       5.9504       -4.7117      10.6621        -5.1625      11.1128
   31       4.7960        3.0593       1.7367        -6.2518      11.0478
   42     200.0744       -0.0033     200.0777         0.0021     200.0723
 Sum      221.1415      -17.8963     239.0378       -24.0279     245.1694

 Contributions to Isotropic shielding for atom   12 (    32.4293 ppm):
                         Standard Origin              Atomic Origin
 NLMO      Total    Paramagnetic  Diamagnetic   Paramagnetic  Diamagnetic
    1       1.4099       -0.6167       2.0266         0.4247       0.9852
    2      26.3154        0.1354      26.1800         0.4275      25.8879
    3       1.9039        1.7674       0.1365         0.0661       1.8379
    4       1.8832        2.0989      -0.2157         0.0493       1.8339
    5      -0.1500        0.7978      -0.9478        -1.0849       0.9349
 Sum       31.3624        4.1829      27.1796        -0.1173      31.4798

 Contributions to Isotropic shielding for atom   13 (    32.7117 ppm):
                         Standard Origin              Atomic Origin
 NLMO      Total    Paramagnetic  Diamagnetic   Paramagnetic  Diamagnetic
    1       1.6208       -1.1753       2.7960         0.7448       0.8759
    2       1.9566        1.9836      -0.0269         0.1299       1.8267
    3      26.3292        0.2642      26.0650         0.4460      25.8833
    4       1.9399        1.6776       0.2623         0.1124       1.8276
 Sum       31.8466        2.7502      29.0964         1.4331      30.4135

 Contributions to Isotropic shielding for atom   14 (    32.5495 ppm):
                         Standard Origin              Atomic Origin
 NLMO      Total    Paramagnetic  Diamagnetic   Paramagnetic  Diamagnetic
    1       1.5010       -0.8370       2.3380         0.5165       0.9845
    2       1.9321        2.2167      -0.2846         0.0878       1.8443
    3       1.9038        1.5613       0.3425         0.0588       1.8450
    4      26.3488        0.2001      26.1487         0.4429      25.9059
    6      -0.1165        0.6715      -0.7880        -1.0014       0.8848
 Sum       31.5691        3.8126      27.7565         0.1046      31.4645

 Contributions to Isotropic shielding for atom   15 (    33.1187 ppm):
                         Standard Origin              Atomic Origin
 NLMO      Total    Paramagnetic  Diamagnetic   Paramagnetic  Diamagnetic
    1       0.8286        2.0542      -1.2256        -0.1623       0.9909
    2       0.2617       -0.9648       1.2265        -0.7001       0.9618
    4       0.2579       -1.0349       1.2929        -0.7130       0.9709
    5       1.5157        0.3637       1.1520         0.6108       0.9048
    6       1.5231       -0.0297       1.5528         0.6361       0.8870
    7      26.6089        0.0507      26.5583         0.3383      26.2706
   10      -0.0849       -0.0174      -0.0675        -1.0581       0.9732
   19      -0.0186       -0.5162       0.4976        -1.1308       1.1122
 Sum       30.8924       -0.0945      30.9869        -2.1789      33.0713

 Contributions to Isotropic shielding for atom   16 (    31.4573 ppm):
                         Standard Origin              Atomic Origin
 NLMO      Total    Paramagnetic  Diamagnetic   Paramagnetic  Diamagnetic
    8       1.0092        0.0972       0.9120         0.0663       0.9429
    9       0.7112        0.5235       0.1877        -0.3748       1.0860
   10       0.9849        0.8565       0.1283        -1.0845       2.0694
   11      26.3110        0.4086      25.9024         0.7391      25.5718
   16      -0.1591       -0.1360      -0.0231        -1.0493       0.8903
   20       0.0195       -0.6604       0.6798        -1.1170       1.1364
   26      -0.3736       -1.5234       1.1499        -0.8949       0.5214
   29      -0.1958       -1.0845       0.8887        -0.8170       0.6212
 Sum       28.3073       -1.5184      29.8257        -4.5321      32.8394

 Contributions to Isotropic shielding for atom   17 (    32.7105 ppm):
                         Standard Origin              Atomic Origin
 NLMO      Total    Paramagnetic  Diamagnetic   Paramagnetic  Diamagnetic
   12       1.3604       -0.0033       1.3637         0.4535       0.9069
   13       1.1183        0.8607       0.2575         0.1416       0.9767
   14      26.4239        0.1139      26.3100         0.3905      26.0333
   15       2.0229        1.4942       0.5287         0.2476       1.7753
   18      -0.0195       -0.8084       0.7888        -1.1448       1.1252
   23       0.0198       -0.6653       0.6851        -0.9953       1.0151
   27      -0.3565       -1.4933       1.1368        -0.9183       0.5618
 Sum       30.5692       -0.5014      31.0706        -1.8251      32.3944

 Contributions to Isotropic shielding for atom   18 (    32.5618 ppm):
                         Standard Origin              Atomic Origin
 NLMO      Total    Paramagnetic  Diamagnetic   Paramagnetic  Diamagnetic
   12       1.3327        0.5099       0.8228         0.4417       0.8910
   13       1.0554        1.3740      -0.3186         0.0493       1.0061
   14       2.1215        1.3608       0.7607         0.3847       1.7368
   15      26.3881        0.0461      26.3420         0.4594      25.9287
   16      -0.0453        0.1085      -0.1538        -1.0236       0.9783
   19       0.0297       -0.5621       0.5918        -1.0963       1.1260
 Sum       30.8820        2.8373      28.0447        -0.7849      31.6669

 Contributions to Isotropic shielding for atom   19 (    33.0472 ppm):
                         Standard Origin              Atomic Origin
 NLMO      Total    Paramagnetic  Diamagnetic   Paramagnetic  Diamagnetic
    8       1.4233        0.6268       0.7965         0.5479       0.8755
   10      -0.0825       -0.4219       0.3394        -1.4200       1.3374
   12       1.1474        0.7156       0.4318         0.2112       0.9362
   16       1.0846        1.2514      -0.1668        -0.0830       1.1677
   17      26.5686        0.0745      26.4941         0.4141      26.1545
   30      -0.1438       -1.3731       1.2293        -1.0200       0.8762
 Sum       29.9977        0.8734      29.1243        -1.3498      31.3475

 Contributions to Isotropic shielding for atom   20 (    32.6055 ppm):
                         Standard Origin              Atomic Origin
 NLMO      Total    Paramagnetic  Diamagnetic   Paramagnetic  Diamagnetic
    1      -0.1846       -0.1299      -0.0547        -1.2616       1.0770
    3      -0.0014       -1.1631       1.1618        -0.9448       0.9434
    5       1.1008        1.0471       0.0537         0.2516       0.8492
   13       1.1963        0.6039       0.5924         0.1215       1.0749
   14      -0.0374        0.0141      -0.0515        -1.1836       1.1462
   18      26.4472       -0.0420      26.4892         0.5029      25.9443
   19       2.0237        2.0036       0.0201         0.2505       1.7731
 Sum       30.5446        2.3337      28.2108        -2.2635      32.8081

 Contributions to Isotropic shielding for atom   21 (    32.3501 ppm):
                         Standard Origin              Atomic Origin
 NLMO      Total    Paramagnetic  Diamagnetic   Paramagnetic  Diamagnetic
    2      -0.0610       -1.2057       1.1447        -0.9081       0.8471
    5       1.0933        0.7594       0.3339         0.0530       1.0403
    7       0.0013       -0.2996       0.3009        -1.0584       1.0597
   13       1.2793        0.3891       0.8902         0.2858       0.9935
   15      -0.0415       -0.0815       0.0400        -1.1363       1.0947
   18       1.9424        2.0101      -0.0677         0.1544       1.7879
   19      26.4781       -0.0074      26.4854         0.4367      26.0414
 Sum       30.6917        1.5643      29.1274        -2.1729      32.8646

 Contributions to Isotropic shielding for atom   22 (    32.5376 ppm):
                         Standard Origin              Atomic Origin
 NLMO      Total    Paramagnetic  Diamagnetic   Paramagnetic  Diamagnetic
    3      -0.0388       -1.3613       1.3225        -0.9208       0.8820
    6       1.1036        0.8069       0.2967         0.2148       0.8889
    9       1.4818        0.1451       1.3367         0.6056       0.8762
   11       0.0046       -0.2055       0.2101        -1.1490       1.1536
   20      26.3832        0.1511      26.2321         0.4312      25.9520
   21       1.8881        1.5430       0.3451         0.0864       1.8017
 Sum       30.8225        1.0793      29.7431        -0.7318      31.5543

 Contributions to Isotropic shielding for atom   23 (    32.3077 ppm):
                         Standard Origin              Atomic Origin
 NLMO      Total    Paramagnetic  Diamagnetic   Paramagnetic  Diamagnetic
    4      -0.0797       -1.5001       1.4204        -0.9742       0.8945
    6       0.9702        1.2496      -0.2794         0.0689       0.9014
    9       1.3109        0.4915       0.8195         0.4250       0.8860
   10      -0.2052        0.0596      -0.2648        -1.7017       1.4965
   20       2.0402        1.4651       0.5750         0.3005       1.7396
   21      26.1941        0.1209      26.0732         0.5044      25.6897
 Sum       30.2304        1.8866      28.3438        -1.3772      31.6076

 Contributions to Isotropic shielding for atom   24 (    35.0311 ppm):
                         Standard Origin              Atomic Origin
 NLMO      Total    Paramagnetic  Diamagnetic   Paramagnetic  Diamagnetic
    9      -0.1288        0.1848      -0.3137        -1.0072       0.8784
   10       2.0917        1.1962       0.8955         1.4805       0.6112
   22      23.0222       -0.3172      23.3394        -0.2314      23.2537
   43       3.7222        1.6489       2.0733         1.7740       1.9481
   44       5.1675        2.0941       3.0734         2.0301       3.1374
 Sum       33.8748        4.8068      29.0680         4.0460      29.8288

 Contributions to Isotropic shielding for atom   25 (    32.4664 ppm):
                         Standard Origin              Atomic Origin
 NLMO      Total    Paramagnetic  Diamagnetic   Paramagnetic  Diamagnetic
   16       1.6693        0.0036       1.6656         0.6291       1.0401
   23       0.8940        1.7735      -0.8795        -0.1448       1.0388
   24       0.8896        1.9519      -1.0623        -0.1468       1.0363
   25      26.5582       -0.1359      26.6941         0.4383      26.1199
   31       0.2175       -0.5143       0.7318        -0.7832       1.0007
 Sum       30.2285        3.0788      27.1497        -0.0073      30.2358

 Contributions to Isotropic shielding for atom   26 (    32.6804 ppm):
                         Standard Origin              Atomic Origin
 NLMO      Total    Paramagnetic  Diamagnetic   Paramagnetic  Diamagnetic
    8      -0.0908        0.0910      -0.1818        -1.0347       0.9439
   23       1.5391       -0.8187       2.3578         0.6024       0.9366
   26      26.3141        0.2881      26.0260         0.3798      25.9343
   27       2.1048        0.5358       1.5690         0.2896       1.8152
   28       1.9581        2.0536      -0.0955         0.1101       1.8480
 Sum       31.8253        2.1498      29.6755         0.3472      31.4781

 Contributions to Isotropic shielding for atom   27 (    32.6181 ppm):
                         Standard Origin              Atomic Origin
 NLMO      Total    Paramagnetic  Diamagnetic   Paramagnetic  Diamagnetic
   12      -0.0677        0.1457      -0.2135        -1.0451       0.9774
   23       1.4975       -0.6816       2.1791         0.4799       1.0175
   26       2.0955        0.4558       1.6397         0.2568       1.8387
   27      26.3257        0.2307      26.0949         0.3781      25.9475
   28       1.9408        2.1592      -0.2185         0.0644       1.8763
 Sum       31.7916        2.3099      29.4818         0.1342      31.6575

 Contributions to Isotropic shielding for atom   28 (    32.5328 ppm):
                         Standard Origin              Atomic Origin
 NLMO      Total    Paramagnetic  Diamagnetic   Paramagnetic  Diamagnetic
   23       1.1973        0.8013       0.3960         0.1615       1.0358
   24      -0.1760        0.6448      -0.8209        -1.1656       0.9896
   26       2.0030        1.6180       0.3850         0.1361       1.8669
   27       2.0172        1.8388       0.1784         0.1494       1.8678
   28      26.2868       -0.0584      26.3451         0.3997      25.8871
 Sum       31.3282        4.8446      26.4836        -0.3190      31.6472

 Contributions to Isotropic shielding for atom   29 (    32.0984 ppm):
                         Standard Origin              Atomic Origin
 NLMO      Total    Paramagnetic  Diamagnetic   Paramagnetic  Diamagnetic
    8      -0.1037        0.1201      -0.2239        -1.0773       0.9736
   10       0.0525       -0.0777       0.1302        -1.2461       1.2986
   23      -0.1403        0.2167      -0.3569        -1.0507       0.9104
   24       1.5090       -0.9061       2.4151         0.6044       0.9046
   29      26.0926        0.3091      25.7835         0.4126      25.6799
   30       2.0469        0.5422       1.5047         0.2359       1.8111
   31       1.8722        2.0729      -0.2006         0.0288       1.8434
   43      -0.3473        0.0245      -0.3718         0.6620      -1.0094
 Sum       30.9819        2.3016      28.6803        -1.4304      32.4122

 Contributions to Isotropic shielding for atom   30 (    32.3900 ppm):
                         Standard Origin              Atomic Origin
 NLMO      Total    Paramagnetic  Diamagnetic   Paramagnetic  Diamagnetic
   24       1.5580       -0.7780       2.3360         0.5714       0.9866
   29       2.0906        0.5382       1.5524         0.2397       1.8509
   30      26.3304        0.2975      26.0330         0.4054      25.9250
   31       1.8902        2.1624      -0.2721         0.0551       1.8352
 Sum       31.8693        2.2200      29.6492         1.2715      30.5978

 Contributions to Isotropic shielding for atom   31 (    32.4434 ppm):
                         Standard Origin              Atomic Origin
 NLMO      Total    Paramagnetic  Diamagnetic   Paramagnetic  Diamagnetic
   23      -0.1634        0.6859      -0.8493        -1.0981       0.9347
   24       1.1650        0.6205       0.5444         0.1725       0.9925
   29       1.9870        1.7146       0.2724         0.1058       1.8812
   30       1.9715        1.7997       0.1718         0.1194       1.8521
   31      26.4408       -0.0050      26.4458         0.4502      25.9906
 Sum       31.4009        4.8158      26.5851        -0.2501      31.6510
 
 1\1\GINC-COMPUTE-10-3\SP\RHF\STO-3G\C10H20O1\YTSAI.IQUIR\03-Aug-2021\0
 \\# rhf/STO-3G nmr pop=nbo\\comment\\0,1\C,0,0.282575466,0.912874621,-
 3.53549058\C,0,-0.130603269,0.498913864,-2.124531449\C,0,0.368030791,-
 1.048600684,-0.171585695\C,0,-0.008407339,1.412078596,0.273778513\C,0,
 -0.452223822,-0.012865003,0.636287327\C,0,-0.246187457,1.727441292,-1.
 206787548\C,0,0.841694523,-0.53148697,-1.539869959\O,0,-0.425594956,-2
 .219872454,-0.378936443\C,0,-0.447072734,-0.245453385,2.176822555\C,0,
 0.919448091,-0.0506357,2.841453793\C,0,-1.013701146,-1.615879654,2.559
 601648\H,0,-0.425352919,1.63853762,-3.949590279\H,0,1.278963385,1.3676
 54641,-3.541611564\H,0,0.303442698,0.045525667,-4.203675122\H,0,-1.121
 838691,0.031674466,-2.198476539\H,0,1.251355132,-1.37597251,0.38417687
 9\H,0,1.061061353,1.533734386,0.486058674\H,0,-0.535588748,2.153093905
 ,0.886225566\H,0,-1.505935351,-0.105869274,0.332169001\H,0,0.459264356
 ,2.511688523,-1.508866668\H,0,-1.247691012,2.159098467,-1.330139391\H,
 0,1.826967972,-0.06126407,-1.423453632\H,0,0.964804917,-1.369632782,-2
 .23661392\H,0,-1.195645804,-1.969270624,-0.916932837\H,0,-1.121200649,
 0.5048824,2.613171669\H,0,1.660580979,-0.766933304,2.475563056\H,0,1.3
 06377496,0.958952732,2.676138595\H,0,0.838627407,-0.188095806,3.925715
 12\H,0,-0.341906281,-2.429272406,2.267858902\H,0,-1.987377149,-1.78331
 6798,2.087696302\H,0,-1.156867238,-1.681729756,3.643844026\\Version=EM
 64L-G09RevC.01\State=1-A\HF=-459.6135779\RMSD=9.399e-09\Dipole=-0.1147
 936,0.5560865,-0.194964\Quadrupole=2.1372116,-3.129202,0.9919904,0.138
 7425,0.7179882,0.6665816\PG=C01 [X(C10H20O1)]\\@


 THE WORLD OF CHEMICAL REACTIONS IS LIKE A STAGE,
 ON WHICH SCENE AFTER SCENE IS CEASELESSLY PLAYED.
 THE ACTORS ON IT ARE THE ELEMENTS.
   -- CLEMENS WINKLER   BER. 30,13(1897)
 (DISCOVERER OF GERMANIUM, FEB 6, 1886)
 Job cpu time:  0 days  0 hours  0 minutes 44.1 seconds.
 File lengths (MBytes):  RWF=      5 Int=      0 D2E=      0 Chk=      1 Scr=      1
 Normal termination of Gaussian 09 at Tue Aug  3 16:36:13 2021.
