 Entering Gaussian System, Link 0=g09
 Input=/home/ytsai.iquir/menthol/03_menthol_M0004_MMFF_NMR_rhf_STO-3G_nbo.gjc
 Output=/home/ytsai.iquir/menthol/03_menthol_M0004_MMFF_NMR_rhf_STO-3G_nbo.log
 Initial command:
 /share/apps/Gaussian09/EM64T.SSE4.2-enabled/g09/l1.exe /tmp/Gau-31031.inp -scrdir=/tmp/
 Entering Link 1 = /share/apps/Gaussian09/EM64T.SSE4.2-enabled/g09/l1.exe PID=     31032.
  
 Copyright (c) 1988,1990,1992,1993,1995,1998,2003,2009,2011,
            Gaussian, Inc.  All Rights Reserved.
  
 This is part of the Gaussian(R) 09 program.  It is based on
 the Gaussian(R) 03 system (copyright 2003, Gaussian, Inc.),
 the Gaussian(R) 98 system (copyright 1998, Gaussian, Inc.),
 the Gaussian(R) 94 system (copyright 1995, Gaussian, Inc.),
 the Gaussian 92(TM) system (copyright 1992, Gaussian, Inc.),
 the Gaussian 90(TM) system (copyright 1990, Gaussian, Inc.),
 the Gaussian 88(TM) system (copyright 1988, Gaussian, Inc.),
 the Gaussian 86(TM) system (copyright 1986, Carnegie Mellon
 University), and the Gaussian 82(TM) system (copyright 1983,
 Carnegie Mellon University). Gaussian is a federally registered
 trademark of Gaussian, Inc.
  
 This software contains proprietary and confidential information,
 including trade secrets, belonging to Gaussian, Inc.
  
 This software is provided under written license and may be
 used, copied, transmitted, or stored only in accord with that
 written license.
  
 The following legend is applicable only to US Government
 contracts under FAR:
  
                    RESTRICTED RIGHTS LEGEND
  
 Use, reproduction and disclosure by the US Government is
 subject to restrictions as set forth in subparagraphs (a)
 and (c) of the Commercial Computer Software - Restricted
 Rights clause in FAR 52.227-19.
  
 Gaussian, Inc.
 340 Quinnipiac St., Bldg. 40, Wallingford CT 06492
  
  
 ---------------------------------------------------------------
 Warning -- This program may not be used in any manner that
 competes with the business of Gaussian, Inc. or will provide
 assistance to any competitor of Gaussian, Inc.  The licensee
 of this program is prohibited from giving any competitor of
 Gaussian, Inc. access to this program.  By using this program,
 the user acknowledges that Gaussian, Inc. is engaged in the
 business of creating and licensing software in the field of
 computational chemistry and represents and warrants to the
 licensee that it is not a competitor of Gaussian, Inc. and that
 it will not use this program in any manner prohibited above.
 ---------------------------------------------------------------
  

 Cite this work as:
 Gaussian 09, Revision C.01,
 M. J. Frisch, G. W. Trucks, H. B. Schlegel, G. E. Scuseria, 
 M. A. Robb, J. R. Cheeseman, G. Scalmani, V. Barone, B. Mennucci, 
 G. A. Petersson, H. Nakatsuji, M. Caricato, X. Li, H. P. Hratchian, 
 A. F. Izmaylov, J. Bloino, G. Zheng, J. L. Sonnenberg, M. Hada, 
 M. Ehara, K. Toyota, R. Fukuda, J. Hasegawa, M. Ishida, T. Nakajima, 
 Y. Honda, O. Kitao, H. Nakai, T. Vreven, J. A. Montgomery, Jr., 
 J. E. Peralta, F. Ogliaro, M. Bearpark, J. J. Heyd, E. Brothers, 
 K. N. Kudin, V. N. Staroverov, T. Keith, R. Kobayashi, J. Normand, 
 K. Raghavachari, A. Rendell, J. C. Burant, S. S. Iyengar, J. Tomasi, 
 M. Cossi, N. Rega, J. M. Millam, M. Klene, J. E. Knox, J. B. Cross, 
 V. Bakken, C. Adamo, J. Jaramillo, R. Gomperts, R. E. Stratmann, 
 O. Yazyev, A. J. Austin, R. Cammi, C. Pomelli, J. W. Ochterski, 
 R. L. Martin, K. Morokuma, V. G. Zakrzewski, G. A. Voth, 
 P. Salvador, J. J. Dannenberg, S. Dapprich, A. D. Daniels, 
 O. Farkas, J. B. Foresman, J. V. Ortiz, J. Cioslowski, 
 and D. J. Fox, Gaussian, Inc., Wallingford CT, 2010.
 
 ******************************************
 Gaussian 09:  EM64L-G09RevC.01 23-Sep-2011
                 3-Aug-2021 
 ******************************************
 %nprocshared=4
 Will use up to    4 processors via shared memory.
 ------------------------
 # rhf/STO-3G nmr pop=nbo
 ------------------------
 1/38=1/1;
 2/12=2,17=6,18=5,40=1/2;
 3/6=3,11=1,16=1,25=1,30=1,116=1/1,2,8,3;
 4//1;
 5/5=2,38=5/2;
 8/6=1,10=90,11=11/1;
 10/13=100,45=16/2;
 6/7=2,8=2,9=2,10=2,28=1,64=1/1,7;
 99/9=1/99;
 -------
 comment
 -------
 Charge =  0 Multiplicity = 1
 Symbolic Z-Matrix:
 6                     0.36267   0.28055  -2.99925 
 6                    -0.91891  -0.04319  -2.22706 
 6                     0.10465  -1.3107   -0.25585 
 6                    -0.3894    1.16005  -0.03138 
 6                    -0.31579  -0.18461   0.71543 
 6                    -1.29984   1.08342  -1.25888 
 6                    -0.8117   -1.37723  -1.48142 
 8                     0.06743  -2.57504   0.40357 
 6                     0.56579  -0.14151   2.00006 
 6                    -0.00215   0.82479   3.04635 
 6                     2.0367    0.19545   1.74048 
 1                     0.59088  -0.51592  -3.7156 
 1                     0.24521   1.21108  -3.56489 
 1                     1.22938   0.39699  -2.3423 
 1                    -1.72241  -0.13546  -2.96947 
 1                     1.13534  -1.16052  -0.59128 
 1                     0.61034   1.48017  -0.34398 
 1                    -0.77749   1.94188   0.63035 
 1                    -1.33307  -0.42502   1.05985 
 1                    -1.29332   2.04825  -1.77995 
 1                    -2.33128   0.92233  -0.91905 
 1                    -0.4668   -2.17016  -2.15717 
 1                    -1.81489  -1.69052  -1.16111 
 1                    -0.83932  -2.71773   0.72459 
 1                     0.53817  -1.13992   2.45616 
 1                     0.09195   1.86892   2.73217 
 1                    -1.05963   0.6163    3.23892 
 1                     0.53403   0.71837   3.99589 
 1                     2.15718   1.19894   1.32118 
 1                     2.5003   -0.52148   1.05734 
 1                     2.60597   0.16152   2.6763 
 
                          Input orientation:                          
 ---------------------------------------------------------------------
 Center     Atomic      Atomic             Coordinates (Angstroms)
 Number     Number       Type             X           Y           Z
 ---------------------------------------------------------------------
      1          6           0        0.362666    0.280549   -2.999246
      2          6           0       -0.918908   -0.043188   -2.227056
      3          6           0        0.104652   -1.310704   -0.255850
      4          6           0       -0.389402    1.160052   -0.031379
      5          6           0       -0.315792   -0.184610    0.715428
      6          6           0       -1.299838    1.083419   -1.258881
      7          6           0       -0.811695   -1.377230   -1.481422
      8          8           0        0.067430   -2.575044    0.403572
      9          6           0        0.565785   -0.141506    2.000059
     10          6           0       -0.002148    0.824794    3.046345
     11          6           0        2.036702    0.195447    1.740482
     12          1           0        0.590879   -0.515923   -3.715604
     13          1           0        0.245210    1.211083   -3.564888
     14          1           0        1.229385    0.396987   -2.342302
     15          1           0       -1.722411   -0.135456   -2.969468
     16          1           0        1.135341   -1.160516   -0.591281
     17          1           0        0.610340    1.480166   -0.343982
     18          1           0       -0.777489    1.941882    0.630354
     19          1           0       -1.333069   -0.425018    1.059852
     20          1           0       -1.293321    2.048248   -1.779945
     21          1           0       -2.331282    0.922327   -0.919046
     22          1           0       -0.466803   -2.170165   -2.157172
     23          1           0       -1.814888   -1.690518   -1.161110
     24          1           0       -0.839319   -2.717728    0.724589
     25          1           0        0.538174   -1.139917    2.456156
     26          1           0        0.091946    1.868923    2.732170
     27          1           0       -1.059628    0.616304    3.238919
     28          1           0        0.534033    0.718370    3.995895
     29          1           0        2.157178    1.198937    1.321180
     30          1           0        2.500302   -0.521485    1.057337
     31          1           0        2.605970    0.161518    2.676296
 ---------------------------------------------------------------------
                    Distance matrix (angstroms):
                    1          2          3          4          5
     1  C    0.000000
     2  C    1.530854   0.000000
     3  C    3.181961   2.557328   0.000000
     4  C    3.185493   2.559133   2.529646   0.000000
     5  C    3.804665   3.006985   1.545394   1.539888   0.000000
     6  C    2.537201   1.533530   2.951354   1.530205   2.544433
     7  C    2.535970   1.532035   1.531713   2.952754   2.548414
     8  O    4.452049   3.781978   1.426456   3.787983   2.440961
     9  C    5.021199   4.481348   2.582401   2.594836   1.558626
    10  C    6.080992   5.422417   3.933986   3.120056   2.559383
    11  C    5.027391   4.953174   3.160166   3.155303   2.594111
    12  H    1.095271   2.172259   3.583015   4.164535   4.534960
    13  H    1.095281   2.172133   4.162800   3.590407   4.536936
    14  H    1.093771   2.195950   2.921389   2.922859   3.474987
    15  H    2.126379   1.097864   3.476074   3.476726   3.944547
    16  H    2.910669   2.853791   1.094254   2.832555   2.183042
    17  H    2.924184   2.864468   2.837683   1.095298   2.179805
    18  H    4.151382   3.482140   3.484659   1.095336   2.177698
    19  H    4.455291   3.334830   2.140690   2.143301   1.100580
    20  H    2.711779   2.171221   3.944585   2.159501   3.488281
    21  H    3.463591   2.153580   3.370464   2.148340   2.821172
    22  H    2.720864   2.175618   2.163391   3.951624   3.495292
    23  H    3.464908   2.157016   2.156012   3.381428   2.834862
    24  H    4.929643   3.983931   1.957565   3.976316   2.586668
    25  H    5.640030   5.025771   2.751742   3.512561   2.161482
    26  H    5.953600   5.410354   4.363308   2.893337   2.906974
    27  H    6.407054   5.507414   4.157200   3.382264   2.750047
    28  H    7.010924   6.435536   4.730628   4.155328   3.506999
    29  H    4.767577   4.857485   3.605299   2.883747   2.897709
    30  H    4.654955   4.765186   2.843671   3.516142   2.856707
    31  H    6.103962   6.042312   4.125713   4.159426   3.535747
                    6          7          8          9         10
     6  C    0.000000
     7  C    2.518452   0.000000
     8  O    4.244705   2.400171   0.000000
     9  C    3.949896   3.942737   2.952836   0.000000
    10  C    4.503983   5.099505   4.306738   1.533296   0.000000
    11  C    4.573530   4.579011   3.652531   1.531181   2.501653
    12  H    3.488294   2.775001   4.634823   5.727969   6.919043
    13  H    2.778694   3.486724   5.487717   5.735931   6.627127
    14  H    2.835834   2.838127   4.209861   4.425657   5.544115
    15  H    2.142506   2.141421   4.531282   5.471022   6.330197
    16  H    3.378022   2.151806   2.032500   2.842151   4.297402
    17  H    2.154815   3.388313   4.159125   2.850673   3.506989
    18  H    2.139864   3.934117   4.600863   2.832134   2.772373
    19  H    2.766407   2.763442   2.648531   2.137760   2.698062
    20  H    1.096561   3.472028   5.290956   4.747603   5.143641
    21  H    1.097868   2.813071   4.442380   4.248048   4.599859
    22  H    3.476591   1.097422   2.647025   4.739649   6.021817
    23  H    2.823042   1.098702   2.602641   4.249710   5.226423
    24  H    4.312187   2.581508   0.972422   3.199697   4.317507
    25  H    4.703511   4.169291   2.548390   1.098004   2.121405
    26  H    4.299136   5.395224   5.017152   2.191423   1.094425
    27  H    4.528366   5.130035   4.415218   2.179682   1.094905
    28  H    5.577546   6.016937   4.895822   2.173420   1.095656
    29  H    4.315208   4.827569   4.410440   2.188651   2.789061
    30  H    4.730924   4.259920   3.250135   2.185284   3.468555
    31  H    5.620574   5.597750   4.370152   2.170593   2.716460
                   11         12         13         14         15
    11  C    0.000000
    12  H    5.689053   0.000000
    13  H    5.691038   1.767697   0.000000
    14  H    4.166713   1.768348   1.768069   0.000000
    15  H    6.035234   2.460240   2.457484   3.064299   0.000000
    16  H    2.843977   3.236253   3.906297   2.345365   3.856587
    17  H    2.833726   3.918238   3.252685   2.355796   3.865894
    18  H    3.493149   5.176928   4.379502   3.905243   4.262269
    19  H    3.493365   5.149254   5.153253   4.337801   4.058430
    20  H    5.187999   3.724508   2.500789   3.067076   2.523420
    21  H    5.165339   4.292822   3.704345   3.870398   2.386181
    22  H    5.201477   2.506774   3.731148   3.082466   2.525156
    23  H    5.177919   3.700382   4.294350   3.875628   2.386824
    24  H    4.217834   5.158365   5.917041   4.835991   4.592825
    25  H    2.130956   6.203448   6.470394   5.085769   5.962934
    26  H    2.750645   6.892766   6.333182   5.404686   6.310159
    27  H    3.465500   7.236815   6.953283   6.036365   6.288759
    28  H    2.760136   7.809861   7.582323   6.384320   7.371353
    29  H    1.094221   5.546461   5.246850   3.863292   5.936453
    30  H    1.093436   5.140709   5.426987   3.743843   5.847690
    31  H    1.095885   6.736164   6.754787   5.209295   7.120233
                   16         17         18         19         20
    16  H    0.000000
    17  H    2.703699   0.000000
    18  H    3.843981   1.757435   0.000000
    19  H    3.059452   3.062240   2.468878   0.000000
    20  H    4.196128   2.451251   2.467172   3.766042   0.000000
    21  H    4.057479   3.048774   2.419589   2.593801   1.756761
    22  H    2.457289   4.215781   4.977526   3.761011   4.315141
    23  H    3.051141   4.074637   4.180894   2.601213   3.825358
    24  H    2.838258   4.567896   4.660973   2.369116   5.403086
    25  H    3.105464   3.835469   3.816020   2.441782   5.609218
    26  H    4.616439   3.143657   2.275713   3.176395   4.723379
    27  H    4.758719   4.046261   2.939621   2.430525   5.224373
    28  H    4.993392   4.406891   3.813652   3.662480   6.202268
    29  H    3.204478   2.290101   3.105072   3.858412   4.716381
    30  H    2.233701   3.089055   4.122426   3.834586   5.389366
    31  H    3.819369   3.852720   4.336285   4.298017   6.214685
                   21         22         23         24         25
    21  H    0.000000
    22  H    3.817426   0.000000
    23  H    2.674362   1.743427   0.000000
    24  H    4.263507   2.956881   2.358550   0.000000
    25  H    4.886575   4.832617   4.350250   2.717590   0.000000
    26  H    4.483242   6.366483   5.609213   5.092643   3.054247
    27  H    4.358833   6.101938   5.025146   4.181645   2.500000
    28  H    5.692827   6.870629   6.157505   4.939059   2.413306
    29  H    5.024082   5.507727   5.503456   4.967411   3.062610
    30  H    5.416168   4.674925   4.990893   4.010894   2.487790
    31  H    6.154817   6.183938   6.140009   4.895838   2.453157
                   26         27         28         29         30
    26  H    0.000000
    27  H    1.775380   0.000000
    28  H    1.765280   1.767254   0.000000
    29  H    2.589393   3.790121   3.165382   0.000000
    30  H    3.784085   4.327466   3.746809   1.774034   0.000000
    31  H    3.039519   3.736306   2.518799   1.764650   1.760309
                   31
    31  H    0.000000
 Stoichiometry    C10H20O
 Framework group  C1[X(C10H20O)]
 Deg. of freedom    87
 Full point group                 C1      NOp   1
 Largest Abelian subgroup         C1      NOp   1
 Largest concise Abelian subgroup C1      NOp   1
                         Standard orientation:                         
 ---------------------------------------------------------------------
 Center     Atomic      Atomic             Coordinates (Angstroms)
 Number     Number       Type             X           Y           Z
 ---------------------------------------------------------------------
      1          6           0       -2.746870   -0.521603    1.216707
      2          6           0       -2.356756   -0.315874   -0.249239
      3          6           0       -0.275228    1.131823    0.084433
      4          6           0       -0.024684   -1.368766   -0.204341
      5          6           0        0.625535    0.002588   -0.464835
      6          6           0       -1.448695   -1.441277   -0.759736
      7          6           0       -1.698249    1.048683   -0.476141
      8          8           0        0.267315    2.407655   -0.251244
      9          6           0        2.094895    0.107269    0.044416
     10          6           0        3.019142   -0.877139   -0.682017
     11          6           0        2.248689   -0.071057    1.557381
     12          1           0       -3.430230    0.268189    1.546654
     13          1           0       -3.261151   -1.479939    1.346124
     14          1           0       -1.881317   -0.514878    1.885369
     15          1           0       -3.286662   -0.342661   -0.832218
     16          1           0       -0.321050    1.086438    1.176785
     17          1           0       -0.045368   -1.585512    0.869097
     18          1           0        0.563592   -2.164099   -0.674594
     19          1           0        0.677569    0.139404   -1.555638
     20          1           0       -1.885596   -2.418012   -0.519837
     21          1           0       -1.399542   -1.384984   -1.855058
     22          1           0       -2.311970    1.849645   -0.044700
     23          1           0       -1.670583    1.258550   -1.554259
     24          1           0        0.331908    2.459033   -1.220157
     25          1           0        2.461517    1.112540   -0.201816
     26          1           0        2.809522   -1.914998   -0.405117
     27          1           0        2.916535   -0.782227   -1.767963
     28          1           0        4.066182   -0.675482   -0.430015
     29          1           0        1.941953   -1.069519    1.883430
     30          1           0        1.663648    0.667555    2.112161
     31          1           0        3.295848    0.061837    1.851935
 ---------------------------------------------------------------------
 Rotational constants (GHZ):      1.5624501      0.7675124      0.6519207
 Standard basis: STO-3G (5D, 7F)
 There are    75 symmetry adapted basis functions of A   symmetry.
 Integral buffers will be    131072 words long.
 Raffenetti 1 integral format.
 Two-electron integral symmetry is turned on.
    75 basis functions,   225 primitive gaussians,    75 cartesian basis functions
    44 alpha electrons       44 beta electrons
       nuclear repulsion energy       696.6360424071 Hartrees.
 NAtoms=   31 NActive=   31 NUniq=   31 SFac= 1.00D+00 NAtFMM=   60 NAOKFM=F Big=F
 One-electron integrals computed using PRISM.
 NBasis=    75 RedAO= T  NBF=    75
 NBsUse=    75 1.00D-06 NBFU=    75
 Harris functional with IExCor=  205 diagonalized for initial guess.
 ExpMin= 1.69D-01 ExpMax= 1.31D+02 ExpMxC= 1.31D+02 IAcc=1 IRadAn=         1 AccDes= 0.00D+00
 HarFok:  IExCor=  205 AccDes= 0.00D+00 IRadAn=         1 IDoV= 1
 ScaDFX=  1.000000  1.000000  1.000000  1.000000
 FoFCou: FMM=F IPFlag=           0 FMFlag=      100000 FMFlg1=           0
         NFxFlg=           0 DoJE=T BraDBF=F KetDBF=T FulRan=T
         Omega=  0.000000  0.000000  1.000000  0.000000  0.000000 ICntrl=     500 IOpCl=  0
         NMat0=    1 NMatS0=    1 NMatT0=    0 NMatD0=    1 NMtDS0=    0 NMtDT0=    0
         I1Cent=           4 NGrid=           0.
 Petite list used in FoFCou.
 Initial guess orbital symmetries:
       Occupied  (A) (A) (A) (A) (A) (A) (A) (A) (A) (A) (A) (A)
                 (A) (A) (A) (A) (A) (A) (A) (A) (A) (A) (A) (A)
                 (A) (A) (A) (A) (A) (A) (A) (A) (A) (A) (A) (A)
                 (A) (A) (A) (A) (A) (A) (A) (A)
       Virtual   (A) (A) (A) (A) (A) (A) (A) (A) (A) (A) (A) (A)
                 (A) (A) (A) (A) (A) (A) (A) (A) (A) (A) (A) (A)
                 (A) (A) (A) (A) (A) (A) (A)
 The electronic state of the initial guess is 1-A.
 Requested convergence on RMS density matrix=1.00D-08 within 128 cycles.
 Requested convergence on MAX density matrix=1.00D-06.
 Requested convergence on             energy=1.00D-06.
 No special actions if energy rises.
 Keep R1 ints in memory in canonical form, NReq=4898789.
 SCF Done:  E(RHF) =  -459.621137792     A.U. after   10 cycles
             Convg  =    0.6546D-08             -V/T =  2.0090
 Range of M.O.s used for correlation:     1    75
 NBasis=    75 NAE=    44 NBE=    44 NFC=     0 NFV=     0
 NROrb=     75 NOA=    44 NOB=    44 NVA=    31 NVB=    31
          Differentiating once with respect to magnetic field using GIAOs.
          Electric field/nuclear overlap derivatives assumed to be zero.
          Keep R3 ints in memory in canonical form, NReq=4863575.
 FoFCou: FMM=F IPFlag=           0 FMFlag=           0 FMFlg1=           0
         NFxFlg=           0 DoJE=F BraDBF=F KetDBF=T FulRan=T
         Omega=  0.000000  0.000000  1.000000  0.000000  0.000000 ICntrl=    6100 IOpCl=  0
         NMat0=    1 NMatS0=    1 NMatT0=    0 NMatD0=    1 NMtDS0=    0 NMtDT0=    0
         I1Cent=           7 NGrid=          31.
 Symmetry not used in FoFCou.
          There are     3 degrees of freedom in the 1st order CPHF.  IDoFFX=0.
      3 vectors produced by pass  0 Test12= 4.55D-14 3.33D-08 XBig12= 6.59D+00 4.24D-01.
 AX will form     3 AO Fock derivatives at one time.
      3 vectors produced by pass  1 Test12= 4.55D-14 3.33D-08 XBig12= 1.02D-02 1.59D-02.
      3 vectors produced by pass  2 Test12= 4.55D-14 3.33D-08 XBig12= 7.38D-05 2.42D-03.
      3 vectors produced by pass  3 Test12= 4.55D-14 3.33D-08 XBig12= 1.92D-06 2.89D-04.
      3 vectors produced by pass  4 Test12= 4.55D-14 3.33D-08 XBig12= 1.85D-08 4.23D-05.
      3 vectors produced by pass  5 Test12= 4.55D-14 3.33D-08 XBig12= 3.47D-10 3.22D-06.
      3 vectors produced by pass  6 Test12= 4.55D-14 3.33D-08 XBig12= 3.93D-12 3.88D-07.
 Inverted reduced A of dimension    21 with in-core refinement.
 Calculating GIAO nuclear magnetic shielding tensors.
 SCF GIAO Magnetic shielding tensor (ppm):
      1  C    Isotropic =   222.8615   Anisotropy =    24.5660
   XX=   215.9357   YX=     1.0394   ZX=    -9.5018
   XY=     1.4844   YY=   219.7482   ZY=    -2.6717
   XZ=   -13.5444   YZ=    -3.1323   ZZ=   232.9007
   Eigenvalues:   210.1060   219.2397   239.2389
      2  C    Isotropic =   216.3603   Anisotropy =     4.3813
   XX=   216.1825   YX=     0.1600   ZX=    -4.1863
   XY=    -0.1892   YY=   218.1226   ZY=    -0.3754
   XZ=    -3.2815   YZ=     0.1752   ZZ=   214.7759
   Eigenvalues:   211.6785   218.1213   219.2812
      3  C    Isotropic =   190.8605   Anisotropy =    41.9406
   XX=   188.0067   YX=     9.4424   ZX=    -4.5899
   XY=    10.7329   YY=   212.4689   ZY=   -10.2128
   XZ=    -4.7711   YZ=   -10.4117   ZZ=   172.1058
   Eigenvalues:   169.3254   184.4351   218.8209
      4  C    Isotropic =   221.1487   Anisotropy =    14.1521
   XX=   226.8579   YX=     4.8665   ZX=     3.1115
   XY=     4.0204   YY=   225.0420   ZY=    -1.6595
   XZ=     2.5372   YZ=    -1.0364   ZZ=   211.5462
   Eigenvalues:   210.7078   222.1548   230.5834
      5  C    Isotropic =   207.5672   Anisotropy =    13.9607
   XX=   213.3203   YX=    -9.7389   ZX=     2.7966
   XY=    -1.3348   YY=   205.5896   ZY=     0.2413
   XZ=     4.6016   YZ=     1.3757   ZZ=   203.7917
   Eigenvalues:   200.5348   205.2925   216.8743
      6  C    Isotropic =   216.7431   Anisotropy =    11.6379
   XX=   221.8473   YX=    -3.0791   ZX=    -2.7501
   XY=    -3.2468   YY=   216.8294   ZY=     6.2690
   XZ=    -1.0680   YZ=     2.6254   ZZ=   211.5525
   Eigenvalues:   209.0192   216.7083   224.5017
      7  C    Isotropic =   214.5177   Anisotropy =    17.3440
   XX=   222.0960   YX=     8.9713   ZX=    -0.8067
   XY=     4.6161   YY=   214.1383   ZY=    -5.7530
   XZ=     1.5269   YZ=    -0.6551   ZZ=   207.3187
   Eigenvalues:   205.4230   212.0497   226.0803
      8  O    Isotropic =   351.0007   Anisotropy =    87.7145
   XX=   319.7499   YX=     1.6649   ZX=     3.7388
   XY=     0.6927   YY=   323.8931   ZY=    18.0817
   XZ=    -5.6995   YZ=   -12.0001   ZZ=   409.3592
   Eigenvalues:   319.4043   324.1208   409.4771
      9  C    Isotropic =   214.7658   Anisotropy =    14.3178
   XX=   223.5845   YX=    -1.5008   ZX=     1.8811
   XY=    -2.4378   YY=   206.2863   ZY=     2.8270
   XZ=     3.1868   YZ=     3.6260   ZZ=   214.4267
   Eigenvalues:   204.7712   215.2153   224.3110
     10  C    Isotropic =   221.3616   Anisotropy =    26.3655
   XX=   224.3074   YX=    -9.1584   ZX=    -8.4164
   XY=   -11.7201   YY=   217.2109   ZY=     9.7229
   XZ=    -5.9122   YZ=     7.1602   ZZ=   222.5665
   Eigenvalues:   208.8947   216.2515   238.9386
     11  C    Isotropic =   224.4302   Anisotropy =    20.8220
   XX=   219.5232   YX=    -0.1614   ZX=     3.4611
   XY=    -0.5896   YY=   215.7555   ZY=    -2.0097
   XZ=     1.1704   YZ=     0.9660   ZZ=   238.0118
   Eigenvalues:   215.7143   219.2646   238.3115
     12  H    Isotropic =    32.5346   Anisotropy =    14.2482
   XX=    34.3741   YX=    -4.6294   ZX=    -6.0519
   XY=    -4.6885   YY=    31.7176   ZY=     2.5103
   XZ=    -6.1903   YZ=     3.0229   ZZ=    31.5122
   Eigenvalues:    26.4792    29.0913    42.0334
     13  H    Isotropic =    32.6117   Anisotropy =    14.3493
   XX=    32.3901   YX=     5.7252   ZX=    -4.2053
   XY=     6.0854   YY=    35.2996   ZY=    -3.0586
   XZ=    -4.2563   YZ=    -3.4691   ZZ=    30.1454
   Eigenvalues:    26.6168    29.0404    42.1779
     14  H    Isotropic =    32.6174   Anisotropy =     7.9047
   XX=    34.4829   YX=     0.4881   ZX=     1.7778
   XY=     0.6526   YY=    26.5349   ZY=    -1.2060
   XZ=     1.9056   YZ=    -1.0053   ZZ=    36.8344
   Eigenvalues:    26.3436    33.6214    37.8872
     15  H    Isotropic =    32.4341   Anisotropy =    15.3472
   XX=    39.3587   YX=     0.5596   ZX=     6.0950
   XY=     0.6240   YY=    26.9064   ZY=     0.0643
   XZ=     6.2578   YZ=     0.1301   ZZ=    31.0372
   Eigenvalues:    26.8452    27.7915    42.6656
     16  H    Isotropic =    31.6290   Anisotropy =     6.6664
   XX=    31.1555   YX=    -0.0972   ZX=    -0.2275
   XY=     0.2122   YY=    27.8205   ZY=     0.5181
   XZ=     0.2412   YZ=     1.7951   ZZ=    35.9112
   Eigenvalues:    27.6575    31.1564    36.0733
     17  H    Isotropic =    32.8494   Anisotropy =     9.0243
   XX=    32.5426   YX=     1.0016   ZX=     1.4269
   XY=     0.6204   YY=    29.8382   ZY=    -4.7538
   XZ=     1.4344   YZ=    -4.8194   ZZ=    36.1674
   Eigenvalues:    26.9163    32.7663    38.8656
     18  H    Isotropic =    32.5958   Anisotropy =    12.9366
   XX=    35.0989   YX=    -3.7038   ZX=    -1.5011
   XY=    -3.9362   YY=    36.8228   ZY=     4.4296
   XZ=    -1.5632   YZ=     4.6389   ZZ=    25.8657
   Eigenvalues:    24.2305    32.3367    41.2202
     19  H    Isotropic =    33.2660   Anisotropy =     8.6992
   XX=    32.8808   YX=    -0.3079   ZX=    -0.7887
   XY=    -0.6577   YY=    28.2776   ZY=    -1.8632
   XZ=    -1.2869   YZ=    -1.5879   ZZ=    38.6398
   Eigenvalues:    27.9132    32.8194    39.0655
     20  H    Isotropic =    32.5262   Anisotropy =    14.3925
   XX=    31.4079   YX=     4.9100   ZX=    -0.5298
   XY=     5.1448   YY=    39.7575   ZY=     0.7629
   XZ=    -0.7415   YZ=     0.3636   ZZ=    26.4133
   Eigenvalues:    26.1783    29.2791    42.1212
     21  H    Isotropic =    32.6608   Anisotropy =    13.0400
   XX=    29.4845   YX=     0.1104   ZX=     1.0943
   XY=     0.1883   YY=    28.2994   ZY=     3.5735
   XZ=     1.4374   YZ=     3.6941   ZZ=    40.1987
   Eigenvalues:    27.2587    29.3697    41.3542
     22  H    Isotropic =    32.0504   Anisotropy =    13.7400
   XX=    33.6517   YX=    -5.6779   ZX=    -2.5270
   XY=    -5.4305   YY=    36.2491   ZY=     1.5900
   XZ=    -2.4075   YZ=     1.8428   ZZ=    26.2505
   Eigenvalues:    25.5033    29.4376    41.2104
     23  H    Isotropic =    32.9581   Anisotropy =    11.8235
   XX=    30.3082   YX=    -0.3680   ZX=     1.6684
   XY=    -0.0047   YY=    30.9353   ZY=    -5.2419
   XZ=     2.6195   YZ=    -5.1629   ZZ=    37.6306
   Eigenvalues:    27.7636    30.2702    40.8404
     24  H    Isotropic =    35.4481   Anisotropy =    15.8242
   XX=    28.7231   YX=     2.6004   ZX=    -1.7944
   XY=     2.5992   YY=    35.8243   ZY=    -4.7958
   XZ=    -2.6986   YZ=    -6.8946   ZZ=    41.7970
   Eigenvalues:    27.8624    32.4844    45.9976
     25  H    Isotropic =    32.0414   Anisotropy =    11.3823
   XX=    32.8861   YX=     3.5802   ZX=    -0.5239
   XY=     3.3297   YY=    37.0720   ZY=    -3.1578
   XZ=    -0.9915   YZ=    -2.5573   ZZ=    26.1660
   Eigenvalues:    25.4614    31.0332    39.6296
     26  H    Isotropic =    32.5691   Anisotropy =     9.9981
   XX=    31.5934   YX=    -1.7746   ZX=    -1.1111
   XY=    -1.8777   YY=    38.7971   ZY=    -0.1929
   XZ=    -1.1031   YZ=    -0.1181   ZZ=    27.3168
   Eigenvalues:    27.0167    31.4560    39.2345
     27  H    Isotropic =    32.6505   Anisotropy =    12.4829
   XX=    31.1156   YX=    -1.6048   ZX=    -2.9323
   XY=    -1.5925   YY=    26.9127   ZY=     1.3386
   XZ=    -2.8763   YZ=     0.9886   ZZ=    39.9230
   Eigenvalues:    26.3711    30.6078    40.9724
     28  H    Isotropic =    32.4105   Anisotropy =    14.6959
   XX=    42.1912   YX=    -0.2920   ZX=    -0.0212
   XY=    -0.6991   YY=    26.9302   ZY=     0.9870
   XZ=    -0.0649   YZ=     1.2420   ZZ=    28.1101
   Eigenvalues:    26.2490    28.7748    42.2078
     29  H    Isotropic =    32.7763   Anisotropy =     9.9538
   XX=    30.0302   YX=     1.9662   ZX=     1.2519
   XY=     1.7431   YY=    34.7062   ZY=    -5.2375
   XZ=     1.1725   YZ=    -5.1561   ZZ=    33.5926
   Eigenvalues:    27.2548    31.6620    39.4122
     30  H    Isotropic =    32.3570   Anisotropy =    10.6367
   XX=    31.1221   YX=    -3.5708   ZX=    -0.2155
   XY=    -3.5931   YY=    30.2154   ZY=     4.9334
   XZ=    -0.5171   YZ=     5.4188   ZZ=    35.7335
   Eigenvalues:    25.5252    32.0977    39.4482
     31  H    Isotropic =    32.5166   Anisotropy =    14.8599
   XX=    38.5013   YX=     1.3536   ZX=     6.0314
   XY=     1.1098   YY=    26.4536   ZY=     1.1379
   XZ=     5.9937   YZ=     1.2559   ZZ=    32.5947
   Eigenvalues:    26.2271    28.8994    42.4232
 End of Minotr Frequency-dependent properties file   721 does not exist.
 End of Minotr Frequency-dependent properties file   722 does not exist.

 **********************************************************************

            Population analysis using the SCF density.

 **********************************************************************

 Orbital symmetries:
       Occupied  (A) (A) (A) (A) (A) (A) (A) (A) (A) (A) (A) (A)
                 (A) (A) (A) (A) (A) (A) (A) (A) (A) (A) (A) (A)
                 (A) (A) (A) (A) (A) (A) (A) (A) (A) (A) (A) (A)
                 (A) (A) (A) (A) (A) (A) (A) (A)
       Virtual   (A) (A) (A) (A) (A) (A) (A) (A) (A) (A) (A) (A)
                 (A) (A) (A) (A) (A) (A) (A) (A) (A) (A) (A) (A)
                 (A) (A) (A) (A) (A) (A) (A)
 The electronic state is 1-A.
 Alpha  occ. eigenvalues --  -20.23823 -11.08449 -11.04885 -11.04496 -11.04359
 Alpha  occ. eigenvalues --  -11.03855 -11.03806 -11.03714 -11.03239 -11.02991
 Alpha  occ. eigenvalues --  -11.02771  -1.27861  -1.08385  -1.03759  -0.96654
 Alpha  occ. eigenvalues --   -0.94686  -0.88817  -0.88459  -0.80698  -0.78543
 Alpha  occ. eigenvalues --   -0.72413  -0.70201  -0.62687  -0.59376  -0.58832
 Alpha  occ. eigenvalues --   -0.57509  -0.56705  -0.55026  -0.53240  -0.52841
 Alpha  occ. eigenvalues --   -0.51774  -0.50381  -0.49291  -0.48340  -0.46549
 Alpha  occ. eigenvalues --   -0.45706  -0.44456  -0.42554  -0.42480  -0.41357
 Alpha  occ. eigenvalues --   -0.40368  -0.39555  -0.35990  -0.32599
 Alpha virt. eigenvalues --    0.53638   0.54868   0.57870   0.60161   0.60655
 Alpha virt. eigenvalues --    0.61416   0.62906   0.65710   0.65952   0.66200
 Alpha virt. eigenvalues --    0.66878   0.69034   0.69901   0.71084   0.71844
 Alpha virt. eigenvalues --    0.72645   0.73273   0.74159   0.75987   0.76458
 Alpha virt. eigenvalues --    0.77246   0.78713   0.78890   0.79564   0.80454
 Alpha virt. eigenvalues --    0.81341   0.81909   0.83043   0.83817   0.84258
 Alpha virt. eigenvalues --    0.84279
          Condensed to atoms (all electrons):
              1          2          3          4          5          6
     1  C    4.742966   0.364453  -0.001435  -0.001419   0.000081  -0.023827
     2  C    0.364453   4.743277  -0.019159  -0.021372  -0.002956   0.363046
     3  C   -0.001435  -0.019159   4.744346  -0.021327   0.355844  -0.004058
     4  C   -0.001419  -0.021372  -0.021327   4.756409   0.360777   0.363021
     5  C    0.000081  -0.002956   0.355844   0.360777   4.791742  -0.021183
     6  C   -0.023827   0.363046  -0.004058   0.363021  -0.021183   4.755555
     7  C   -0.023901   0.361142   0.358280  -0.003601  -0.024228  -0.024001
     8  O    0.000001   0.000252   0.269548   0.000230  -0.017632   0.000001
     9  C    0.000000   0.000002  -0.019451  -0.019172   0.358934   0.000592
    10  C    0.000000   0.000000   0.000603  -0.002037  -0.021940   0.000008
    11  C    0.000000   0.000000  -0.001837  -0.001999  -0.020314   0.000006
    12  H    0.382451  -0.020265   0.000020   0.000005  -0.000002   0.001251
    13  H    0.382383  -0.020285   0.000008   0.000028  -0.000001  -0.002250
    14  H    0.382565  -0.019918  -0.000450  -0.000381   0.000044  -0.001681
    15  H   -0.025052   0.383015   0.001186   0.001228   0.000001  -0.023234
    16  H   -0.000466  -0.000879   0.379171  -0.001183  -0.023361   0.000102
    17  H   -0.000438  -0.001357  -0.001734   0.381647  -0.021988  -0.022813
    18  H    0.000009   0.001235   0.001156   0.383176  -0.020593  -0.022322
    19  H   -0.000001   0.000105  -0.025126  -0.023963   0.378020  -0.002005
    20  H   -0.003055  -0.021264   0.000018  -0.021557   0.001193   0.382657
    21  H    0.001305  -0.022645   0.000036  -0.023483  -0.001770   0.381179
    22  H   -0.003026  -0.020389  -0.021290   0.000008   0.001162   0.001217
    23  H    0.001304  -0.021653  -0.023331   0.000087  -0.001808  -0.001346
    24  H   -0.000001  -0.000006  -0.042083  -0.000003  -0.003129   0.000005
    25  H    0.000000  -0.000001  -0.002247   0.001089  -0.022973  -0.000013
    26  H    0.000000   0.000000  -0.000005  -0.000705  -0.001205   0.000000
    27  H    0.000000   0.000000   0.000018  -0.000012  -0.002594  -0.000003
    28  H    0.000000   0.000000  -0.000013   0.000021   0.001159   0.000000
    29  H    0.000000   0.000000   0.000035  -0.000612  -0.001486   0.000000
    30  H    0.000000   0.000000  -0.000853   0.000023  -0.001591  -0.000002
    31  H    0.000000   0.000000   0.000018   0.000017   0.001112   0.000000
              7          8          9         10         11         12
     1  C   -0.023901   0.000001   0.000000   0.000000   0.000000   0.382451
     2  C    0.361142   0.000252   0.000002   0.000000   0.000000  -0.020265
     3  C    0.358280   0.269548  -0.019451   0.000603  -0.001837   0.000020
     4  C   -0.003601   0.000230  -0.019172  -0.002037  -0.001999   0.000005
     5  C   -0.024228  -0.017632   0.358934  -0.021940  -0.020314  -0.000002
     6  C   -0.024001   0.000001   0.000592   0.000008   0.000006   0.001251
     7  C    4.782785  -0.020060   0.000581  -0.000004   0.000007  -0.002280
     8  O   -0.020060   7.844880  -0.001167   0.000001   0.000026   0.000000
     9  C    0.000581  -0.001167   4.740262   0.364146   0.364389   0.000000
    10  C   -0.000004   0.000001   0.364146   4.743919  -0.026199   0.000000
    11  C    0.000007   0.000026   0.364389  -0.026199   4.741846   0.000000
    12  H   -0.002280   0.000000   0.000000   0.000000   0.000000   0.629437
    13  H    0.001254   0.000000   0.000000   0.000000   0.000000  -0.021485
    14  H   -0.001614   0.000000   0.000002   0.000000   0.000001  -0.021956
    15  H   -0.023243  -0.000005   0.000001   0.000000   0.000000  -0.002458
    16  H   -0.024776  -0.018997  -0.001852   0.000001  -0.000722   0.000040
    17  H    0.000094   0.000001  -0.001696   0.000043  -0.000623  -0.000003
    18  H    0.000001  -0.000004  -0.001581  -0.000802   0.000036   0.000000
    19  H   -0.002071  -0.001253  -0.024599  -0.002887   0.001151   0.000000
    20  H    0.001233   0.000000  -0.000013   0.000000   0.000000   0.000034
    21  H   -0.001341  -0.000001   0.000003   0.000001   0.000000  -0.000035
    22  H    0.381988  -0.000511  -0.000013   0.000000   0.000000   0.000187
    23  H    0.379190  -0.001510   0.000001   0.000000  -0.000001   0.000028
    24  H   -0.002933   0.256988  -0.000025  -0.000008   0.000000   0.000000
    25  H    0.000017   0.000487   0.381869  -0.024981  -0.024387   0.000000
    26  H    0.000000   0.000000  -0.020243   0.382391  -0.002611   0.000000
    27  H    0.000000   0.000000  -0.020243   0.381949   0.001320   0.000000
    28  H    0.000000   0.000000  -0.019897   0.382617  -0.001962   0.000000
    29  H   -0.000002   0.000000  -0.020519  -0.002220   0.382163   0.000000
    30  H    0.000002   0.000035  -0.019588   0.001326   0.382882   0.000000
    31  H    0.000000  -0.000001  -0.019897  -0.002561   0.382427   0.000000
             13         14         15         16         17         18
     1  C    0.382383   0.382565  -0.025052  -0.000466  -0.000438   0.000009
     2  C   -0.020285  -0.019918   0.383015  -0.000879  -0.001357   0.001235
     3  C    0.000008  -0.000450   0.001186   0.379171  -0.001734   0.001156
     4  C    0.000028  -0.000381   0.001228  -0.001183   0.381647   0.383176
     5  C   -0.000001   0.000044   0.000001  -0.023361  -0.021988  -0.020593
     6  C   -0.002250  -0.001681  -0.023234   0.000102  -0.022813  -0.022322
     7  C    0.001254  -0.001614  -0.023243  -0.024776   0.000094   0.000001
     8  O    0.000000   0.000000  -0.000005  -0.018997   0.000001  -0.000004
     9  C    0.000000   0.000002   0.000001  -0.001852  -0.001696  -0.001581
    10  C    0.000000   0.000000   0.000000   0.000001   0.000043  -0.000802
    11  C    0.000000   0.000001   0.000000  -0.000722  -0.000623   0.000036
    12  H   -0.021485  -0.021956  -0.002458   0.000040  -0.000003   0.000000
    13  H    0.630394  -0.021972  -0.002511   0.000000   0.000049  -0.000004
    14  H   -0.021972   0.631194   0.001915  -0.000584  -0.000533  -0.000003
    15  H   -0.002511   0.001915   0.649387  -0.000013  -0.000007  -0.000032
    16  H    0.000000  -0.000584  -0.000013   0.629938   0.000218  -0.000008
    17  H    0.000049  -0.000533  -0.000007   0.000218   0.641964  -0.023508
    18  H   -0.000004  -0.000003  -0.000032  -0.000008  -0.023508   0.638366
    19  H    0.000000  -0.000003  -0.000017   0.001794   0.001896  -0.002582
    20  H    0.000190   0.000018  -0.001333  -0.000006  -0.002753  -0.001907
    21  H    0.000029  -0.000002  -0.003600   0.000002   0.001980  -0.003120
    22  H    0.000034   0.000017  -0.001357  -0.002927  -0.000008   0.000002
    23  H   -0.000035  -0.000003  -0.003648   0.001852   0.000003  -0.000010
    24  H    0.000000  -0.000001   0.000000   0.003592   0.000000   0.000000
    25  H    0.000000   0.000000   0.000000   0.000027   0.000000   0.000005
    26  H    0.000000   0.000000   0.000000   0.000000   0.000039  -0.000810
    27  H    0.000000   0.000000   0.000000   0.000000   0.000005   0.000019
    28  H    0.000000   0.000000   0.000000   0.000000  -0.000004   0.000005
    29  H    0.000000  -0.000001   0.000000   0.000030  -0.000716   0.000034
    30  H    0.000000  -0.000001   0.000000  -0.000711   0.000029   0.000003
    31  H    0.000000   0.000000   0.000000  -0.000003   0.000000  -0.000004
             19         20         21         22         23         24
     1  C   -0.000001  -0.003055   0.001305  -0.003026   0.001304  -0.000001
     2  C    0.000105  -0.021264  -0.022645  -0.020389  -0.021653  -0.000006
     3  C   -0.025126   0.000018   0.000036  -0.021290  -0.023331  -0.042083
     4  C   -0.023963  -0.021557  -0.023483   0.000008   0.000087  -0.000003
     5  C    0.378020   0.001193  -0.001770   0.001162  -0.001808  -0.003129
     6  C   -0.002005   0.382657   0.381179   0.001217  -0.001346   0.000005
     7  C   -0.002071   0.001233  -0.001341   0.381988   0.379190  -0.002933
     8  O   -0.001253   0.000000  -0.000001  -0.000511  -0.001510   0.256988
     9  C   -0.024599  -0.000013   0.000003  -0.000013   0.000001  -0.000025
    10  C   -0.002887   0.000000   0.000001   0.000000   0.000000  -0.000008
    11  C    0.001151   0.000000   0.000000   0.000000  -0.000001   0.000000
    12  H    0.000000   0.000034  -0.000035   0.000187   0.000028   0.000000
    13  H    0.000000   0.000190   0.000029   0.000034  -0.000035   0.000000
    14  H   -0.000003   0.000018  -0.000002   0.000017  -0.000003  -0.000001
    15  H   -0.000017  -0.001333  -0.003600  -0.001357  -0.003648   0.000000
    16  H    0.001794  -0.000006   0.000002  -0.002927   0.001852   0.003592
    17  H    0.001896  -0.002753   0.001980  -0.000008   0.000003   0.000000
    18  H   -0.002582  -0.001907  -0.003120   0.000002  -0.000010   0.000000
    19  H    0.664689   0.000009   0.000333   0.000001   0.000259   0.000742
    20  H    0.000009   0.638647  -0.023329  -0.000032   0.000007   0.000000
    21  H    0.000333  -0.023329   0.647903   0.000003   0.000178   0.000000
    22  H    0.000001  -0.000032   0.000003   0.632203  -0.024510  -0.000021
    23  H    0.000259   0.000007   0.000178  -0.024510   0.651833   0.000737
    24  H    0.000742   0.000000   0.000000  -0.000021   0.000737   0.611166
    25  H   -0.002216   0.000000   0.000000  -0.000001   0.000002  -0.000073
    26  H    0.000027   0.000001   0.000001   0.000000   0.000000   0.000000
    27  H    0.000237   0.000000   0.000000   0.000000   0.000000   0.000000
    28  H    0.000025   0.000000   0.000000   0.000000   0.000000   0.000000
    29  H   -0.000002   0.000001   0.000000   0.000000   0.000000   0.000000
    30  H    0.000008   0.000000   0.000000   0.000001   0.000000  -0.000005
    31  H   -0.000029   0.000000   0.000000   0.000000   0.000000   0.000000
             25         26         27         28         29         30
     1  C    0.000000   0.000000   0.000000   0.000000   0.000000   0.000000
     2  C   -0.000001   0.000000   0.000000   0.000000   0.000000   0.000000
     3  C   -0.002247  -0.000005   0.000018  -0.000013   0.000035  -0.000853
     4  C    0.001089  -0.000705  -0.000012   0.000021  -0.000612   0.000023
     5  C   -0.022973  -0.001205  -0.002594   0.001159  -0.001486  -0.001591
     6  C   -0.000013   0.000000  -0.000003   0.000000   0.000000  -0.000002
     7  C    0.000017   0.000000   0.000000   0.000000  -0.000002   0.000002
     8  O    0.000487   0.000000   0.000000   0.000000   0.000000   0.000035
     9  C    0.381869  -0.020243  -0.020243  -0.019897  -0.020519  -0.019588
    10  C   -0.024981   0.382391   0.381949   0.382617  -0.002220   0.001326
    11  C   -0.024387  -0.002611   0.001320  -0.001962   0.382163   0.382882
    12  H    0.000000   0.000000   0.000000   0.000000   0.000000   0.000000
    13  H    0.000000   0.000000   0.000000   0.000000   0.000000   0.000000
    14  H    0.000000   0.000000   0.000000   0.000000  -0.000001  -0.000001
    15  H    0.000000   0.000000   0.000000   0.000000   0.000000   0.000000
    16  H    0.000027   0.000000   0.000000   0.000000   0.000030  -0.000711
    17  H    0.000000   0.000039   0.000005  -0.000004  -0.000716   0.000029
    18  H    0.000005  -0.000810   0.000019   0.000005   0.000034   0.000003
    19  H   -0.002216   0.000027   0.000237   0.000025  -0.000002   0.000008
    20  H    0.000000   0.000001   0.000000   0.000000   0.000001   0.000000
    21  H    0.000000   0.000001   0.000000   0.000000   0.000000   0.000000
    22  H   -0.000001   0.000000   0.000000   0.000000   0.000000   0.000001
    23  H    0.000002   0.000000   0.000000   0.000000   0.000000   0.000000
    24  H   -0.000073   0.000000   0.000000   0.000000   0.000000  -0.000005
    25  H    0.643613   0.001926  -0.001787  -0.003184   0.001903  -0.002234
    26  H    0.001926   0.631629  -0.021687  -0.022182   0.000385   0.000017
    27  H   -0.001787  -0.021687   0.633501  -0.021683   0.000009  -0.000037
    28  H   -0.003184  -0.022182  -0.021683   0.630503  -0.000007   0.000020
    29  H    0.001903   0.000385   0.000009  -0.000007   0.633086  -0.021783
    30  H   -0.002234   0.000017  -0.000037   0.000020  -0.021783   0.627452
    31  H   -0.002517  -0.000026   0.000033   0.000088  -0.022058  -0.021893
             31
     1  C    0.000000
     2  C    0.000000
     3  C    0.000018
     4  C    0.000017
     5  C    0.001112
     6  C    0.000000
     7  C    0.000000
     8  O   -0.000001
     9  C   -0.019897
    10  C   -0.002561
    11  C    0.382427
    12  H    0.000000
    13  H    0.000000
    14  H    0.000000
    15  H    0.000000
    16  H   -0.000003
    17  H    0.000000
    18  H   -0.000004
    19  H   -0.000029
    20  H    0.000000
    21  H    0.000000
    22  H    0.000000
    23  H    0.000000
    24  H    0.000000
    25  H   -0.002517
    26  H   -0.000026
    27  H    0.000033
    28  H    0.000088
    29  H   -0.022058
    30  H   -0.021893
    31  H    0.630457
 Mulliken atomic charges:
              1
     1  C   -0.174897
     2  C   -0.024380
     3  C    0.074111
     4  C   -0.104941
     5  C   -0.039317
     6  C   -0.099905
     7  C   -0.112519
     8  O   -0.311307
     9  C   -0.020824
    10  C   -0.173366
    11  C   -0.175597
    12  H    0.055031
    13  H    0.054174
    14  H    0.053347
    15  H    0.049775
    16  H    0.059722
    17  H    0.050212
    18  H    0.053240
    19  H    0.037460
    20  H    0.051239
    21  H    0.046374
    22  H    0.057262
    23  H    0.042374
    24  H    0.175057
    25  H    0.055676
    26  H    0.053057
    27  H    0.050955
    28  H    0.054492
    29  H    0.051760
    30  H    0.056899
    31  H    0.054835
 Sum of Mulliken atomic charges =   0.00000
 Mulliken charges with hydrogens summed into heavy atoms:
              1
     1  C   -0.012345
     2  C    0.025396
     3  C    0.133832
     4  C   -0.001489
     5  C   -0.001857
     6  C   -0.002291
     7  C   -0.012883
     8  O   -0.136250
     9  C    0.034853
    10  C   -0.014863
    11  C   -0.012102
 Sum of Mulliken charges with hydrogens summed into heavy atoms =   0.00000
 Electronic spatial extent (au):  <R**2>=           2042.8478
 Charge=              0.0000 electrons
 Dipole moment (field-independent basis, Debye):
    X=             -0.4027    Y=             -1.0648    Z=             -0.9514  Tot=              1.4836
 Quadrupole moment (field-independent basis, Debye-Ang):
   XX=            -67.6251   YY=            -71.9095   ZZ=            -65.7539
   XY=             -0.5852   XZ=             -0.3078   YZ=             -2.5481
 Traceless Quadrupole moment (field-independent basis, Debye-Ang):
   XX=              0.8044   YY=             -3.4800   ZZ=              2.6756
   XY=             -0.5852   XZ=             -0.3078   YZ=             -2.5481
 Octapole moment (field-independent basis, Debye-Ang**2):
  XXX=              1.8835  YYY=             -0.9544  ZZZ=             -6.1120  XYY=             -2.3813
  XXY=              6.2516  XXZ=             -0.0698  XZZ=              0.8777  YZZ=              9.9102
  YYZ=             -5.7928  XYZ=             -1.5525
 Hexadecapole moment (field-independent basis, Debye-Ang**3):
 XXXX=          -1606.2222 YYYY=           -629.0872 ZZZZ=           -375.4687 XXXY=              8.4826
 XXXZ=              6.9154 YYYX=              1.1682 YYYZ=            -21.3868 ZZZX=             -1.4434
 ZZZY=             -8.8232 XXYY=           -367.8059 XXZZ=           -338.2270 YYZZ=           -151.7989
 XXYZ=             -1.5226 YYXZ=             -4.5764 ZZXY=              2.0996
 N-N= 6.966360424071D+02 E-N=-2.465159263661D+03  KE= 4.555344854359D+02
 ******************************Gaussian NBO Version 3.1******************************
             N A T U R A L   A T O M I C   O R B I T A L   A N D
          N A T U R A L   B O N D   O R B I T A L   A N A L Y S I S
 ******************************Gaussian NBO Version 3.1******************************
       /RESON  / : Allow strongly delocalized NBO set
       /NLMO   / : Form Natural Localized Molecular Orbitals
       /NMR /    : Analyze NMR Sheilding Tensor 

 Analyzing the SCF density

 Job title: comment                                                         

 Storage needed:     19864 in NPA,     23691 in NBO,     45933 in NLMO (  33549317 available)


 NATURAL POPULATIONS:  Natural atomic orbital occupancies 
                                                          
   NAO  Atom  No  lang   Type(AO)    Occupancy      Energy
 ----------------------------------------------------------
     1    C    1  S      Cor( 1S)     1.99997     -10.96600
     2    C    1  S      Val( 2S)     1.07963      -0.18304
     3    C    1  px     Val( 2p)     1.02655       0.08103
     4    C    1  py     Val( 2p)     1.02949       0.08157
     5    C    1  pz     Val( 2p)     0.99456       0.08836

     6    C    2  S      Cor( 1S)     1.99997     -10.99142
     7    C    2  S      Val( 2S)     1.07914      -0.19384
     8    C    2  px     Val( 2p)     0.98404       0.10029
     9    C    2  py     Val( 2p)     0.95711       0.10769
    10    C    2  pz     Val( 2p)     0.96556       0.10620

    11    C    3  S      Cor( 1S)     1.99989     -11.03348
    12    C    3  S      Val( 2S)     1.08743      -0.21572
    13    C    3  px     Val( 2p)     0.93628       0.09754
    14    C    3  py     Val( 2p)     0.84067       0.12276
    15    C    3  pz     Val( 2p)     0.99587       0.08028

    16    C    4  S      Cor( 1S)     1.99996     -10.97644
    17    C    4  S      Val( 2S)     1.08309      -0.19010
    18    C    4  px     Val( 2p)     0.98174       0.09384
    19    C    4  py     Val( 2p)     0.98817       0.09376
    20    C    4  pz     Val( 2p)     1.01453       0.09156

    21    C    5  S      Cor( 1S)     1.99996     -10.98890
    22    C    5  S      Val( 2S)     1.10298      -0.21307
    23    C    5  px     Val( 2p)     0.96154       0.10300
    24    C    5  py     Val( 2p)     0.96375       0.10160
    25    C    5  pz     Val( 2p)     0.98943       0.09620

    26    C    6  S      Cor( 1S)     1.99996     -10.97674
    27    C    6  S      Val( 2S)     1.08342      -0.19041
    28    C    6  px     Val( 2p)     0.97542       0.09835
    29    C    6  py     Val( 2p)     0.99654       0.09299
    30    C    6  pz     Val( 2p)     1.00668       0.09013

    31    C    7  S      Cor( 1S)     1.99996     -10.97551
    32    C    7  S      Val( 2S)     1.09263      -0.19896
    33    C    7  px     Val( 2p)     0.99298       0.08670
    34    C    7  py     Val( 2p)     0.99220       0.09193
    35    C    7  pz     Val( 2p)     1.01118       0.08660

    36    O    8  S      Cor( 1S)     1.99999     -20.14211
    37    O    8  S      Val( 2S)     1.74958      -0.99829
    38    O    8  px     Val( 2p)     1.87424      -0.32917
    39    O    8  py     Val( 2p)     1.42641      -0.14822
    40    O    8  pz     Val( 2p)     1.28147      -0.09493

    41    C    9  S      Cor( 1S)     1.99996     -10.98907
    42    C    9  S      Val( 2S)     1.08450      -0.19404
    43    C    9  px     Val( 2p)     0.95216       0.11239
    44    C    9  py     Val( 2p)     0.99218       0.10343
    45    C    9  pz     Val( 2p)     0.95183       0.11559

    46    C   10  S      Cor( 1S)     1.99997     -10.96370
    47    C   10  S      Val( 2S)     1.08098      -0.18164
    48    C   10  px     Val( 2p)     1.01603       0.08436
    49    C   10  py     Val( 2p)     1.01431       0.08779
    50    C   10  pz     Val( 2p)     1.01763       0.08664

    51    C   11  S      Cor( 1S)     1.99997     -10.96134
    52    C   11  S      Val( 2S)     1.07933      -0.17809
    53    C   11  px     Val( 2p)     1.03156       0.08406
    54    C   11  py     Val( 2p)     1.02724       0.08925
    55    C   11  pz     Val( 2p)     0.99370       0.09145

    56    H   12  S      Val( 1S)     0.96224       0.07428

    57    H   13  S      Val( 1S)     0.96299       0.07346

    58    H   14  S      Val( 1S)     0.96402       0.07412

    59    H   15  S      Val( 1S)     0.97445       0.06522

    60    H   16  S      Val( 1S)     0.97571       0.06033

    61    H   17  S      Val( 1S)     0.97093       0.07109

    62    H   18  S      Val( 1S)     0.96777       0.07189

    63    H   19  S      Val( 1S)     0.98687       0.05372

    64    H   20  S      Val( 1S)     0.96960       0.06899

    65    H   21  S      Val( 1S)     0.97435       0.06612

    66    H   22  S      Val( 1S)     0.96375       0.07298

    67    H   23  S      Val( 1S)     0.97725       0.05961

    68    H   24  S      Val( 1S)     0.81266       0.07424

    69    H   25  S      Val( 1S)     0.97036       0.07503

    70    H   26  S      Val( 1S)     0.96446       0.07618

    71    H   27  S      Val( 1S)     0.96623       0.07328

    72    H   28  S      Val( 1S)     0.96277       0.07564

    73    H   29  S      Val( 1S)     0.96542       0.07699

    74    H   30  S      Val( 1S)     0.96078       0.08254

    75    H   31  S      Val( 1S)     0.96208       0.07797


 Summary of Natural Population Analysis:                  
                                                          
                                       Natural Population 
                Natural  -----------------------------------------------
    Atom  No    Charge         Core      Valence    Rydberg      Total
 -----------------------------------------------------------------------
      C    1   -0.13020      1.99997     4.13023    0.00000     6.13020
      C    2    0.01418      1.99997     3.98585    0.00000     5.98582
      C    3    0.13987      1.99989     3.86024    0.00000     5.86013
      C    4   -0.06749      1.99996     4.06753    0.00000     6.06749
      C    5   -0.01765      1.99996     4.01769    0.00000     6.01765
      C    6   -0.06202      1.99996     4.06206    0.00000     6.06202
      C    7   -0.08896      1.99996     4.08899    0.00000     6.08896
      O    8   -0.33170      1.99999     6.33170    0.00000     8.33170
      C    9    0.01937      1.99996     3.98067    0.00000     5.98063
      C   10   -0.12891      1.99997     4.12894    0.00000     6.12891
      C   11   -0.13181      1.99997     4.13184    0.00000     6.13181
      H   12    0.03776      0.00000     0.96224    0.00000     0.96224
      H   13    0.03701      0.00000     0.96299    0.00000     0.96299
      H   14    0.03598      0.00000     0.96402    0.00000     0.96402
      H   15    0.02555      0.00000     0.97445    0.00000     0.97445
      H   16    0.02429      0.00000     0.97571    0.00000     0.97571
      H   17    0.02907      0.00000     0.97093    0.00000     0.97093
      H   18    0.03223      0.00000     0.96777    0.00000     0.96777
      H   19    0.01313      0.00000     0.98687    0.00000     0.98687
      H   20    0.03040      0.00000     0.96960    0.00000     0.96960
      H   21    0.02565      0.00000     0.97435    0.00000     0.97435
      H   22    0.03625      0.00000     0.96375    0.00000     0.96375
      H   23    0.02275      0.00000     0.97725    0.00000     0.97725
      H   24    0.18734      0.00000     0.81266    0.00000     0.81266
      H   25    0.02964      0.00000     0.97036    0.00000     0.97036
      H   26    0.03554      0.00000     0.96446    0.00000     0.96446
      H   27    0.03377      0.00000     0.96623    0.00000     0.96623
      H   28    0.03723      0.00000     0.96277    0.00000     0.96277
      H   29    0.03458      0.00000     0.96542    0.00000     0.96542
      H   30    0.03922      0.00000     0.96078    0.00000     0.96078
      H   31    0.03792      0.00000     0.96208    0.00000     0.96208
 =======================================================================
   * Total *    0.00000     21.99955    66.00045    0.00000    88.00000

                                 Natural Population      
 --------------------------------------------------------
   Core                      21.99955 ( 99.9980% of  22)
   Valence                   66.00045 (100.0007% of  66)
   Natural Minimal Basis     88.00000 (100.0000% of  88)
   Natural Rydberg Basis      0.00000 (  0.0000% of  88)
 --------------------------------------------------------

    Atom  No          Natural Electron Configuration
 ----------------------------------------------------------------------------
      C    1      [core]2S( 1.08)2p( 3.05)
      C    2      [core]2S( 1.08)2p( 2.91)
      C    3      [core]2S( 1.09)2p( 2.77)
      C    4      [core]2S( 1.08)2p( 2.98)
      C    5      [core]2S( 1.10)2p( 2.91)
      C    6      [core]2S( 1.08)2p( 2.98)
      C    7      [core]2S( 1.09)2p( 3.00)
      O    8      [core]2S( 1.75)2p( 4.58)
      C    9      [core]2S( 1.08)2p( 2.90)
      C   10      [core]2S( 1.08)2p( 3.05)
      C   11      [core]2S( 1.08)2p( 3.05)
      H   12            1S( 0.96)
      H   13            1S( 0.96)
      H   14            1S( 0.96)
      H   15            1S( 0.97)
      H   16            1S( 0.98)
      H   17            1S( 0.97)
      H   18            1S( 0.97)
      H   19            1S( 0.99)
      H   20            1S( 0.97)
      H   21            1S( 0.97)
      H   22            1S( 0.96)
      H   23            1S( 0.98)
      H   24            1S( 0.81)
      H   25            1S( 0.97)
      H   26            1S( 0.96)
      H   27            1S( 0.97)
      H   28            1S( 0.96)
      H   29            1S( 0.97)
      H   30            1S( 0.96)
      H   31            1S( 0.96)


 NATURAL BOND ORBITAL ANALYSIS:

                       Occupancies       Lewis Structure    Low   High
           Occ.    -------------------  -----------------   occ   occ
  Cycle   Thresh.   Lewis   Non-Lewis     CR  BD  3C  LP    (L)   (NL)   Dev
 =============================================================================
   1(1)    1.90    87.63270   0.36730     11  31   0   2     0      0    0.02
 -----------------------------------------------------------------------------

 Structure accepted: No low occupancy Lewis orbitals

 --------------------------------------------------------
   Core                     21.99955 ( 99.998% of  22)
   Valence Lewis            65.63315 ( 99.444% of  66)
  ==================       ============================
   Total Lewis              87.63270 ( 99.583% of  88)
  -----------------------------------------------------
   Valence non-Lewis         0.36730 (  0.417% of  88)
   Rydberg non-Lewis         0.00000 (  0.000% of  88)
  ==================       ============================
   Total non-Lewis           0.36730 (  0.417% of  88)
 --------------------------------------------------------


       (Occupancy)   Bond orbital/ Coefficients/ Hybrids
 ---------------------------------------------------------------------------------
     1. (1.99026) BD ( 1) C   1 - C   2  
                ( 50.89%)   0.7134* C   1 s( 25.81%)p 2.87( 74.19%)
                                            0.0001  0.5081  0.2335  0.1168 -0.8208
                ( 49.11%)   0.7008* C   2 s( 25.13%)p 2.98( 74.87%)
                                            0.0000  0.5013 -0.1881 -0.1136  0.8369
     2. (1.99483) BD ( 1) C   1 - H  12  
                ( 51.89%)   0.7204* C   1 s( 24.63%)p 3.06( 75.37%)
                                            0.0000  0.4963 -0.5395  0.6348  0.2441
                ( 48.11%)   0.6936* H  12 s(100.00%)
                                            1.0000
     3. (1.99482) BD ( 1) C   1 - H  13  
                ( 51.85%)   0.7201* C   1 s( 24.62%)p 3.06( 75.38%)
                                            0.0000  0.4962 -0.4044 -0.7638  0.0834
                ( 48.15%)   0.6939* H  13 s(100.00%)
                                            1.0000
     4. (1.99498) BD ( 1) C   1 - H  14  
                ( 51.85%)   0.7201* C   1 s( 24.93%)p 3.01( 75.07%)
                                            0.0000  0.4993  0.7006  0.0091  0.5097
                ( 48.15%)   0.6939* H  14 s(100.00%)
                                            1.0000
     5. (1.98533) BD ( 1) C   2 - C   6  
                ( 49.68%)   0.7048* C   2 s( 25.16%)p 2.97( 74.84%)
                                            0.0000  0.5016  0.5266 -0.6319 -0.2679
                ( 50.32%)   0.7094* C   6 s( 25.42%)p 2.93( 74.58%)
                                            0.0001  0.5042 -0.4955  0.6373  0.3068
     6. (1.98379) BD ( 1) C   2 - C   7  
                ( 49.39%)   0.7028* C   2 s( 25.13%)p 2.98( 74.87%)
                                            0.0000  0.5013  0.3865  0.7664 -0.1094
                ( 50.61%)   0.7114* C   7 s( 25.65%)p 2.90( 74.35%)
                                            0.0001  0.5065 -0.3568 -0.7716  0.1440
     7. (1.98441) BD ( 1) C   2 - H  15  
                ( 51.16%)   0.7153* C   2 s( 24.57%)p 3.07( 75.43%)
                                            0.0000  0.4957 -0.7335 -0.0207 -0.4646
                ( 48.84%)   0.6988* H  15 s(100.00%)
                                            1.0000
     8. (1.98261) BD ( 1) C   3 - C   5  
                ( 50.00%)   0.7071* C   3 s( 25.64%)p 2.90( 74.36%)
                                            0.0001  0.5064  0.5009 -0.6296 -0.3102
                ( 50.00%)   0.7071* C   5 s( 24.93%)p 3.01( 75.07%)
                                            0.0000  0.4993 -0.4919  0.6272  0.3397
     9. (1.98749) BD ( 1) C   3 - C   7  
                ( 49.32%)   0.7023* C   3 s( 25.52%)p 2.92( 74.48%)
                                            0.0000  0.5052 -0.7954 -0.0646 -0.3287
                ( 50.68%)   0.7119* C   7 s( 25.27%)p 2.96( 74.73%)
                                            0.0000  0.5027  0.8001  0.0209  0.3266
    10. (1.98748) BD ( 1) C   3 - O   8  
                ( 41.08%)   0.6409* C   3 s( 22.41%)p 3.46( 77.59%)
                                           -0.0001  0.4734  0.3403  0.7737 -0.2479
                ( 58.92%)   0.7676* O   8 s( 16.52%)p 5.05( 83.48%)
                                            0.0000  0.4065 -0.3456 -0.8315  0.1548
    11. (1.98572) BD ( 1) C   3 - H  16  
                ( 51.35%)   0.7166* C   3 s( 26.43%)p 2.78( 73.57%)
                                            0.0000  0.5141 -0.0253 -0.0288  0.8569
                ( 48.65%)   0.6975* H  16 s(100.00%)
                                            1.0000
    12. (1.98445) BD ( 1) C   4 - C   5  
                ( 50.32%)   0.7093* C   4 s( 25.36%)p 2.94( 74.64%)
                                            0.0001  0.5036  0.3577  0.7726 -0.1471
                ( 49.68%)   0.7049* C   5 s( 25.47%)p 2.93( 74.53%)
                                            0.0000  0.5047 -0.3490 -0.7700  0.1748
    13. (1.98940) BD ( 1) C   4 - C   6  
                ( 49.99%)   0.7071* C   4 s( 25.07%)p 2.99( 74.93%)
                                            0.0000  0.5007 -0.8061 -0.0131 -0.3152
                ( 50.01%)   0.7072* C   6 s( 25.32%)p 2.95( 74.68%)
                                            0.0000  0.5032  0.7959  0.0613  0.3312
    14. (1.99001) BD ( 1) C   4 - H  17  
                ( 51.49%)   0.7176* C   4 s( 24.74%)p 3.04( 75.26%)
                                            0.0000  0.4974 -0.0225 -0.1512  0.8540
                ( 48.51%)   0.6965* H  17 s(100.00%)
                                            1.0000
    15. (1.98915) BD ( 1) C   4 - H  18  
                ( 51.58%)   0.7182* C   4 s( 24.84%)p 3.03( 75.16%)
                                            0.0000  0.4984  0.4709 -0.6165 -0.3870
                ( 48.42%)   0.6958* H  18 s(100.00%)
                                            1.0000
    16. (1.97897) BD ( 1) C   5 - C   9  
                ( 50.29%)   0.7091* C   5 s( 25.55%)p 2.91( 74.45%)
                                            0.0001  0.5055  0.7967  0.0447  0.3282
                ( 49.71%)   0.7051* C   9 s( 25.34%)p 2.95( 74.66%)
                                            0.0001  0.5033 -0.8211 -0.0873 -0.2546
    17. (1.98321) BD ( 1) C   5 - H  19  
                ( 50.57%)   0.7111* C   5 s( 24.05%)p 3.16( 75.95%)
                                            0.0000  0.4904  0.0387  0.1078 -0.8639
                ( 49.43%)   0.7031* H  19 s(100.00%)
                                            1.0000
    18. (1.98981) BD ( 1) C   6 - H  20  
                ( 51.50%)   0.7176* C   6 s( 25.00%)p 3.00( 75.00%)
                                            0.0000  0.5000 -0.3452 -0.7656  0.2114
                ( 48.50%)   0.6964* H  20 s(100.00%)
                                            1.0000
    19. (1.99048) BD ( 1) C   6 - H  21  
                ( 51.28%)   0.7161* C   6 s( 24.27%)p 3.12( 75.73%)
                                            0.0000  0.4926  0.0445  0.0622 -0.8669
                ( 48.72%)   0.6980* H  21 s(100.00%)
                                            1.0000
    20. (1.98946) BD ( 1) C   7 - H  22  
                ( 51.80%)   0.7197* C   7 s( 24.97%)p 3.00( 75.03%)
                                            0.0000  0.4997 -0.4807  0.6191  0.3687
                ( 48.20%)   0.6943* H  22 s(100.00%)
                                            1.0000
    21. (1.98895) BD ( 1) C   7 - H  23  
                ( 51.12%)   0.7150* C   7 s( 24.10%)p 3.15( 75.90%)
                                            0.0000  0.4910  0.0382  0.1444 -0.8583
                ( 48.88%)   0.6992* H  23 s(100.00%)
                                            1.0000
    22. (1.98956) BD ( 1) O   8 - H  24  
                ( 59.41%)   0.7708* O   8 s( 16.77%)p 4.96( 83.23%)
                                            0.0000 -0.4095 -0.0458 -0.0115  0.9111
                ( 40.59%)   0.6371* H  24 s(100.00%)
                                           -1.0000
    23. (1.98896) BD ( 1) C   9 - C  10  
                ( 48.93%)   0.6995* C   9 s( 24.92%)p 3.01( 75.08%)
                                            0.0000  0.4992  0.4949 -0.5815 -0.4096
                ( 51.07%)   0.7146* C  10 s( 25.77%)p 2.88( 74.23%)
                                            0.0001  0.5076 -0.5286  0.5448  0.4076
    24. (1.99022) BD ( 1) C   9 - C  11  
                ( 49.06%)   0.7004* C   9 s( 25.31%)p 2.95( 74.69%)
                                            0.0000  0.5031  0.0565 -0.1214  0.8538
                ( 50.94%)   0.7137* C  11 s( 25.86%)p 2.87( 74.14%)
                                            0.0001  0.5085 -0.1000  0.0960 -0.8498
    25. (1.98401) BD ( 1) C   9 - H  25  
                ( 51.39%)   0.7168* C   9 s( 24.43%)p 3.09( 75.57%)
                                            0.0000  0.4943  0.2788  0.7997 -0.1960
                ( 48.61%)   0.6972* H  25 s(100.00%)
                                            1.0000
    26. (1.99525) BD ( 1) C  10 - H  26  
                ( 51.83%)   0.7199* C  10 s( 24.88%)p 3.02( 75.12%)
                                            0.0000  0.4988 -0.1850 -0.8153  0.2286
                ( 48.17%)   0.6940* H  26 s(100.00%)
                                            1.0000
    27. (1.99508) BD ( 1) C  10 - H  27  
                ( 51.71%)   0.7191* C  10 s( 24.72%)p 3.05( 75.28%)
                                            0.0000  0.4972 -0.0962  0.0854 -0.8580
                ( 48.29%)   0.6949* H  27 s(100.00%)
                                            1.0000
    28. (1.99463) BD ( 1) C  10 - H  28  
                ( 51.86%)   0.7201* C  10 s( 24.64%)p 3.06( 75.36%)
                                            0.0000  0.4963  0.8229  0.1766  0.2129
                ( 48.14%)   0.6939* H  28 s(100.00%)
                                            1.0000
    29. (1.99506) BD ( 1) C  11 - H  29  
                ( 51.78%)   0.7196* C  11 s( 24.81%)p 3.03( 75.19%)
                                            0.0000  0.4981 -0.2524 -0.7947  0.2380
                ( 48.22%)   0.6944* H  29 s(100.00%)
                                            1.0000
    30. (1.99449) BD ( 1) C  11 - H  30  
                ( 51.98%)   0.7210* C  11 s( 24.82%)p 3.03( 75.18%)
                                            0.0000  0.4982 -0.4764  0.5897  0.4208
                ( 48.02%)   0.6929* H  30 s(100.00%)
                                            1.0000
    31. (1.99425) BD ( 1) C  11 - H  31  
                ( 51.88%)   0.7203* C  11 s( 24.50%)p 3.08( 75.50%)
                                            0.0000  0.4950  0.8362  0.1076  0.2100
                ( 48.12%)   0.6937* H  31 s(100.00%)
                                            1.0000
    32. (1.99997) CR ( 1) C   1           s(100.00%)
                                            1.0000  0.0000  0.0000  0.0000  0.0001
    33. (1.99997) CR ( 1) C   2           s(100.00%)
                                            1.0000  0.0000  0.0000  0.0000  0.0000
    34. (1.99989) CR ( 1) C   3           s(100.00%)
                                            1.0000  0.0000  0.0000  0.0001  0.0000
    35. (1.99996) CR ( 1) C   4           s(100.00%)
                                            1.0000  0.0000  0.0000 -0.0001  0.0000
    36. (1.99996) CR ( 1) C   5           s(100.00%)
                                            1.0000  0.0000  0.0000  0.0000  0.0000
    37. (1.99996) CR ( 1) C   6           s(100.00%)
                                            1.0000  0.0000  0.0000 -0.0001  0.0000
    38. (1.99996) CR ( 1) C   7           s(100.00%)
                                            1.0000  0.0000  0.0000  0.0001  0.0000
    39. (1.99999) CR ( 1) O   8           s(100.00%)
                                            1.0000  0.0000  0.0000  0.0000  0.0000
    40. (1.99996) CR ( 1) C   9           s(100.00%)
                                            1.0000  0.0000  0.0001  0.0000  0.0000
    41. (1.99997) CR ( 1) C  10           s(100.00%)
                                            1.0000  0.0000  0.0001  0.0000  0.0000
    42. (1.99997) CR ( 1) C  11           s(100.00%)
                                            1.0000  0.0000  0.0000  0.0000  0.0001
    43. (1.99364) LP ( 1) O   8           s( 66.69%)p 0.50( 33.31%)
                                            0.0000  0.8167  0.1617  0.4028  0.3803
    44. (1.97239) LP ( 2) O   8           s(  0.01%)p99.99( 99.99%)
                                            0.0000  0.0113 -0.9232  0.3824 -0.0366
    45. (0.01111) BD*( 1) C   1 - C   2  
                ( 49.11%)   0.7008* C   1 s( 25.81%)p 2.87( 74.19%)
                                           -0.0001 -0.5081 -0.2335 -0.1168  0.8208
                ( 50.89%)  -0.7134* C   2 s( 25.13%)p 2.98( 74.87%)
                                            0.0000 -0.5013  0.1881  0.1136 -0.8369
    46. (0.00492) BD*( 1) C   1 - H  12  
                ( 48.11%)   0.6936* C   1 s( 24.63%)p 3.06( 75.37%)
                                            0.0000 -0.4963  0.5395 -0.6348 -0.2441
                ( 51.89%)  -0.7204* H  12 s(100.00%)
                                           -1.0000
    47. (0.00493) BD*( 1) C   1 - H  13  
                ( 48.15%)   0.6939* C   1 s( 24.62%)p 3.06( 75.38%)
                                            0.0000 -0.4962  0.4044  0.7638 -0.0834
                ( 51.85%)  -0.7201* H  13 s(100.00%)
                                           -1.0000
    48. (0.00672) BD*( 1) C   1 - H  14  
                ( 48.15%)   0.6939* C   1 s( 24.93%)p 3.01( 75.07%)
                                            0.0000 -0.4993 -0.7006 -0.0091 -0.5097
                ( 51.85%)  -0.7201* H  14 s(100.00%)
                                           -1.0000
    49. (0.01653) BD*( 1) C   2 - C   6  
                ( 50.32%)   0.7094* C   2 s( 25.16%)p 2.97( 74.84%)
                                            0.0000  0.5016  0.5266 -0.6319 -0.2679
                ( 49.68%)  -0.7048* C   6 s( 25.42%)p 2.93( 74.58%)
                                            0.0001  0.5042 -0.4955  0.6373  0.3068
    50. (0.01584) BD*( 1) C   2 - C   7  
                ( 50.61%)   0.7114* C   2 s( 25.13%)p 2.98( 74.87%)
                                            0.0000  0.5013  0.3865  0.7664 -0.1094
                ( 49.39%)  -0.7028* C   7 s( 25.65%)p 2.90( 74.35%)
                                            0.0001  0.5065 -0.3568 -0.7716  0.1440
    51. (0.01045) BD*( 1) C   2 - H  15  
                ( 48.84%)   0.6988* C   2 s( 24.57%)p 3.07( 75.43%)
                                            0.0000 -0.4957  0.7335  0.0207  0.4646
                ( 51.16%)  -0.7153* H  15 s(100.00%)
                                           -1.0000
    52. (0.03314) BD*( 1) C   3 - C   5  
                ( 50.00%)   0.7071* C   3 s( 25.64%)p 2.90( 74.36%)
                                           -0.0001 -0.5064 -0.5009  0.6296  0.3102
                ( 50.00%)  -0.7071* C   5 s( 24.93%)p 3.01( 75.07%)
                                            0.0000 -0.4993  0.4919 -0.6272 -0.3397
    53. (0.02734) BD*( 1) C   3 - C   7  
                ( 50.68%)   0.7119* C   3 s( 25.52%)p 2.92( 74.48%)
                                            0.0000  0.5052 -0.7954 -0.0646 -0.3287
                ( 49.32%)  -0.7023* C   7 s( 25.27%)p 2.96( 74.73%)
                                            0.0000  0.5027  0.8001  0.0209  0.3266
    54. (0.02196) BD*( 1) C   3 - O   8  
                ( 58.92%)   0.7676* C   3 s( 22.41%)p 3.46( 77.59%)
                                           -0.0001  0.4734  0.3403  0.7737 -0.2479
                ( 41.08%)  -0.6409* O   8 s( 16.52%)p 5.05( 83.48%)
                                            0.0000  0.4065 -0.3456 -0.8315  0.1548
    55. (0.01890) BD*( 1) C   3 - H  16  
                ( 48.65%)   0.6975* C   3 s( 26.43%)p 2.78( 73.57%)
                                            0.0000 -0.5141  0.0253  0.0288 -0.8569
                ( 51.35%)  -0.7166* H  16 s(100.00%)
                                           -1.0000
    56. (0.01639) BD*( 1) C   4 - C   5  
                ( 49.68%)   0.7049* C   4 s( 25.36%)p 2.94( 74.64%)
                                           -0.0001 -0.5036 -0.3577 -0.7726  0.1471
                ( 50.32%)  -0.7093* C   5 s( 25.47%)p 2.93( 74.53%)
                                            0.0000 -0.5047  0.3490  0.7700 -0.1748
    57. (0.01189) BD*( 1) C   4 - C   6  
                ( 50.01%)   0.7072* C   4 s( 25.07%)p 2.99( 74.93%)
                                            0.0000  0.5007 -0.8061 -0.0131 -0.3152
                ( 49.99%)  -0.7071* C   6 s( 25.32%)p 2.95( 74.68%)
                                            0.0000  0.5032  0.7959  0.0613  0.3312
    58. (0.01082) BD*( 1) C   4 - H  17  
                ( 48.51%)   0.6965* C   4 s( 24.74%)p 3.04( 75.26%)
                                            0.0000 -0.4974  0.0225  0.1512 -0.8540
                ( 51.49%)  -0.7176* H  17 s(100.00%)
                                           -1.0000
    59. (0.00908) BD*( 1) C   4 - H  18  
                ( 48.42%)   0.6958* C   4 s( 24.84%)p 3.03( 75.16%)
                                            0.0000 -0.4984 -0.4709  0.6165  0.3870
                ( 51.58%)  -0.7182* H  18 s(100.00%)
                                           -1.0000
    60. (0.02279) BD*( 1) C   5 - C   9  
                ( 49.71%)   0.7051* C   5 s( 25.55%)p 2.91( 74.45%)
                                           -0.0001 -0.5055 -0.7967 -0.0447 -0.3282
                ( 50.29%)  -0.7091* C   9 s( 25.34%)p 2.95( 74.66%)
                                           -0.0001 -0.5033  0.8211  0.0873  0.2546
    61. (0.01287) BD*( 1) C   5 - H  19  
                ( 49.43%)   0.7031* C   5 s( 24.05%)p 3.16( 75.95%)
                                            0.0000 -0.4904 -0.0387 -0.1078  0.8639
                ( 50.57%)  -0.7111* H  19 s(100.00%)
                                           -1.0000
    62. (0.00875) BD*( 1) C   6 - H  20  
                ( 48.50%)   0.6964* C   6 s( 25.00%)p 3.00( 75.00%)
                                            0.0000 -0.5000  0.3452  0.7656 -0.2114
                ( 51.50%)  -0.7176* H  20 s(100.00%)
                                           -1.0000
    63. (0.00889) BD*( 1) C   6 - H  21  
                ( 48.72%)   0.6980* C   6 s( 24.27%)p 3.12( 75.73%)
                                            0.0000 -0.4926 -0.0445 -0.0622  0.8669
                ( 51.28%)  -0.7161* H  21 s(100.00%)
                                           -1.0000
    64. (0.00915) BD*( 1) C   7 - H  22  
                ( 48.20%)   0.6943* C   7 s( 24.97%)p 3.00( 75.03%)
                                            0.0000 -0.4997  0.4807 -0.6191 -0.3687
                ( 51.80%)  -0.7197* H  22 s(100.00%)
                                           -1.0000
    65. (0.00980) BD*( 1) C   7 - H  23  
                ( 48.88%)   0.6992* C   7 s( 24.10%)p 3.15( 75.90%)
                                            0.0000 -0.4910 -0.0382 -0.1444  0.8583
                ( 51.12%)  -0.7150* H  23 s(100.00%)
                                           -1.0000
    66. (0.00868) BD*( 1) O   8 - H  24  
                ( 40.59%)   0.6371* O   8 s( 16.77%)p 4.96( 83.23%)
                                            0.0000  0.4095  0.0458  0.0115 -0.9111
                ( 59.41%)  -0.7708* H  24 s(100.00%)
                                            1.0000
    67. (0.01027) BD*( 1) C   9 - C  10  
                ( 51.07%)   0.7146* C   9 s( 24.92%)p 3.01( 75.08%)
                                            0.0000  0.4992  0.4949 -0.5815 -0.4096
                ( 48.93%)  -0.6995* C  10 s( 25.77%)p 2.88( 74.23%)
                                            0.0001  0.5076 -0.5286  0.5448  0.4076
    68. (0.01074) BD*( 1) C   9 - C  11  
                ( 50.94%)   0.7137* C   9 s( 25.31%)p 2.95( 74.69%)
                                            0.0000  0.5031  0.0565 -0.1214  0.8538
                ( 49.06%)  -0.7004* C  11 s( 25.86%)p 2.87( 74.14%)
                                            0.0001  0.5085 -0.1000  0.0960 -0.8498
    69. (0.01137) BD*( 1) C   9 - H  25  
                ( 48.61%)   0.6972* C   9 s( 24.43%)p 3.09( 75.57%)
                                            0.0000 -0.4943 -0.2788 -0.7997  0.1960
                ( 51.39%)  -0.7168* H  25 s(100.00%)
                                           -1.0000
    70. (0.00655) BD*( 1) C  10 - H  26  
                ( 48.17%)   0.6940* C  10 s( 24.88%)p 3.02( 75.12%)
                                            0.0000 -0.4988  0.1850  0.8153 -0.2286
                ( 51.83%)  -0.7199* H  26 s(100.00%)
                                           -1.0000
    71. (0.00542) BD*( 1) C  10 - H  27  
                ( 48.29%)   0.6949* C  10 s( 24.72%)p 3.05( 75.28%)
                                            0.0000 -0.4972  0.0962 -0.0854  0.8580
                ( 51.71%)  -0.7191* H  27 s(100.00%)
                                           -1.0000
    72. (0.00478) BD*( 1) C  10 - H  28  
                ( 48.14%)   0.6939* C  10 s( 24.64%)p 3.06( 75.36%)
                                            0.0000 -0.4963 -0.8229 -0.1766 -0.2129
[...]
   10      -0.2901       -0.1237      -0.1664        -1.3913       1.1012
   11       0.2306       -0.5200       0.7506        -0.9202       1.1508
   20       4.4840       -0.9021       5.3862        -6.6575      11.1415
   21       5.1980       -3.0051       8.2031        -5.6446      10.8426
   38     200.0176       -0.0024     200.0200         0.0027     200.0149
 Sum      212.9467      -23.4565     236.4032       -27.6069     240.5536

 Contributions to Isotropic shielding for atom    8 (   351.0007 ppm):
                         Standard Origin              Atomic Origin
 NLMO      Total    Paramagnetic  Diamagnetic   Paramagnetic  Diamagnetic
    6      -1.2260       -1.5584       0.3324        -1.2127      -0.0133
    9      -1.0548       -0.5919      -0.4629        -1.8911       0.8363
   10      22.1134        4.9429      17.1706        11.5466      10.5668
   11       0.9753        0.2693       0.7060        -0.2739       1.2492
   12      -0.8581       -1.0181       0.1600        -0.8747       0.0167
   17      -0.2500       -0.4675       0.2175        -1.1064       0.8564
   21      -0.3199       -0.8822       0.5623        -1.3095       0.9896
   22      21.2837        9.1204      12.1633         6.8410      14.4426
   39     271.1745       -0.0064     271.1809        -0.0028     271.1774
   43      32.8867        1.4571      31.4296        -4.5652      37.4519
   44       5.7360      -32.7035      38.4395       -34.1256      39.8616
 Sum      350.4609      -21.4384     371.8993       -26.9743     377.4352

 Contributions to Isotropic shielding for atom    9 (   214.7658 ppm):
                         Standard Origin              Atomic Origin
 NLMO      Total    Paramagnetic  Diamagnetic   Paramagnetic  Diamagnetic
   10      -0.0090       -0.3265       0.3175        -1.1950       1.1860
   16       5.6383       -9.0708      14.7091        -2.0088       7.6471
   23      -1.5448       -4.1754       2.6305        -8.9907       7.4459
   24      -0.3970       -6.4590       6.0620        -7.9402       7.5432
   25       6.1313       -1.3742       7.5055        -4.8801      11.0114
   26       1.0781       -0.2767       1.3548         0.0621       1.0160
   27       0.7138       -0.6425       1.3563        -0.3231       1.0370
   28       0.6283       -0.3805       1.0088        -0.4049       1.0332
   29       0.8764       -0.2780       1.1543        -0.1531       1.0295
   30       0.6313       -0.5442       1.1755        -0.3829       1.0142
   31       0.5938       -0.1963       0.7901        -0.4395       1.0333
   40     199.9245       -0.0017     199.9262         0.0024     199.9221
 Sum      214.2648      -23.7260     237.9908       -26.6540     240.9188

 Contributions to Isotropic shielding for atom   10 (   221.3616 ppm):
                         Standard Origin              Atomic Origin
 NLMO      Total    Paramagnetic  Diamagnetic   Paramagnetic  Diamagnetic
   23       4.4789      -11.6181      16.0970        -3.5468       8.0258
   24      -0.5234        0.0517      -0.5752        -1.2181       0.6947
   25       0.3288        0.1540       0.1747        -0.7180       1.0468
   26       6.2184       -4.0596      10.2780        -4.9163      11.1347
   27       5.5851       -3.9517       9.5368        -5.4845      11.0696
   28       5.0599        2.6093       2.4506        -6.0537      11.1136
   41     200.0750       -0.0037     200.0787         0.0022     200.0728
 Sum      221.2226      -16.8181     238.0407       -21.9352     243.1578

 Contributions to Isotropic shielding for atom   11 (   224.4301 ppm):
                         Standard Origin              Atomic Origin
 NLMO      Total    Paramagnetic  Diamagnetic   Paramagnetic  Diamagnetic
   23      -0.3831        0.0306      -0.4137        -1.0555       0.6724
   24       4.0112       -9.1353      13.1466        -3.9513       7.9625
   25       0.3578       -0.0755       0.4333        -0.6560       1.0139
   29       6.7806       -4.1965      10.9771        -4.3224      11.1030
   30       6.8540       -5.2487      12.1026        -4.3129      11.1669
   31       6.1088        3.4632       2.6457        -4.9970      11.1058
   42     200.0733       -0.0023     200.0757         0.0015     200.0718
 Sum      223.8027      -15.1646     238.9673       -19.2935     243.0962

 Contributions to Isotropic shielding for atom   12 (    32.5346 ppm):
                         Standard Origin              Atomic Origin
 NLMO      Total    Paramagnetic  Diamagnetic   Paramagnetic  Diamagnetic
    1       1.2978        0.3919       0.9059         0.2700       1.0278
    2      26.3112        0.1066      26.2046         0.4203      25.8909
    3       1.9311        2.3817      -0.4506         0.0895       1.8416
    4       2.0998        0.5922       1.5077         0.2453       1.8545
 Sum       31.6400        3.4724      28.1676         1.0252      30.6148

 Contributions to Isotropic shielding for atom   13 (    32.6117 ppm):
                         Standard Origin              Atomic Origin
 NLMO      Total    Paramagnetic  Diamagnetic   Paramagnetic  Diamagnetic
    1       1.2673        0.4823       0.7850         0.2373       1.0300
    2       1.9477        2.3690      -0.4213         0.1051       1.8426
    3      26.3388        0.0934      26.2454         0.4276      25.9112
    4       2.0920        0.6685       1.4235         0.2372       1.8549
 Sum       31.6458        3.6131      28.0327         1.0072      30.6386

 Contributions to Isotropic shielding for atom   14 (    32.6174 ppm):
                         Standard Origin              Atomic Origin
 NLMO      Total    Paramagnetic  Diamagnetic   Paramagnetic  Diamagnetic
    1       1.6175       -1.2785       2.8959         0.7263       0.8912
    2       1.9886        0.9417       1.0470         0.1473       1.8413
    3       1.9842        1.0473       0.9369         0.1423       1.8419
    4      26.2926        0.3832      25.9094         0.3592      25.9334
 Sum       31.8829        1.0937      30.7892         1.3751      30.5079

 Contributions to Isotropic shielding for atom   15 (    32.4341 ppm):
                         Standard Origin              Atomic Origin
 NLMO      Total    Paramagnetic  Diamagnetic   Paramagnetic  Diamagnetic
    1       0.8002        2.2456      -1.4454        -0.2180       1.0182
    5       1.2112        1.2755      -0.0643         0.2277       0.9835
    6       1.2458        1.1975       0.0483         0.2862       0.9596
    7      26.5358       -0.2849      26.8206         0.5124      26.0234
   19       0.1438        0.0755       0.0684        -0.8952       1.0391
   21       0.1126        0.1131      -0.0006        -0.9284       1.0410
 Sum       30.0493        4.6224      25.4269        -1.0153      31.0646

 Contributions to Isotropic shielding for atom   16 (    31.6290 ppm):
                         Standard Origin              Atomic Origin
 NLMO      Total    Paramagnetic  Diamagnetic   Paramagnetic  Diamagnetic
    8       1.1928       -0.1475       1.3403         0.2971       0.8957
   10       0.9839        0.5943       0.3896        -1.0511       2.0350
   11      26.2853        0.4917      25.7936         0.6916      25.5937
   24       0.0138       -0.6715       0.6853        -1.0101       1.0240
   30      -0.3979       -1.3465       0.9485        -0.8882       0.4903
 Sum       28.0779       -1.0794      29.1573        -1.9608      30.0387

 Contributions to Isotropic shielding for atom   17 (    32.8494 ppm):
                         Standard Origin              Atomic Origin
 NLMO      Total    Paramagnetic  Diamagnetic   Paramagnetic  Diamagnetic
   12       1.3851        0.0272       1.3579         0.4750       0.9101
   13       1.1107        0.8795       0.2312         0.1539       0.9568
   14      26.3952        0.1769      26.2182         0.3907      26.0044
   15       2.0688        1.3873       0.6816         0.3104       1.7584
   29      -0.3348       -1.3427       1.0079        -0.9356       0.6009
 Sum       30.6250        1.1283      29.4967         0.3944      30.2306

 Contributions to Isotropic shielding for atom   18 (    32.5958 ppm):
                         Standard Origin              Atomic Origin
 NLMO      Total    Paramagnetic  Diamagnetic   Paramagnetic  Diamagnetic
   12       1.2823        0.5237       0.7585         0.3283       0.9540
   13       1.0492        1.4205      -0.3713        -0.0162       1.0654
   14       2.1319        1.1801       0.9518         0.3669       1.7650
   15      26.3677        0.0241      26.3436         0.4277      25.9400
   19       0.2060       -0.4249       0.6309        -0.8116       1.0176
   26      -0.3100       -1.5247       1.2146        -0.9794       0.6694
 Sum       30.7271        1.1990      29.5281        -0.6842      31.4113

 Contributions to Isotropic shielding for atom   19 (    33.2660 ppm):
                         Standard Origin              Atomic Origin
 NLMO      Total    Paramagnetic  Diamagnetic   Paramagnetic  Diamagnetic
    8       1.3017        0.8680       0.4337         0.4350       0.8667
   10      -0.0625       -0.1546       0.0921        -1.1104       1.0479
   12       1.1929        0.7885       0.4044         0.2052       0.9877
   16       1.0751        1.2882      -0.2131        -0.0811       1.1563
   17      26.7082        0.0443      26.6639         0.4349      26.2733
   22      -0.0500       -1.1038       1.0537        -0.7479       0.6978
   27      -0.1376       -1.5156       1.3780        -1.0199       0.8823
 Sum       30.0278        0.2150      29.8127        -1.8842      31.9120

 Contributions to Isotropic shielding for atom   20 (    32.5262 ppm):
                         Standard Origin              Atomic Origin
 NLMO      Total    Paramagnetic  Diamagnetic   Paramagnetic  Diamagnetic
    1      -0.0800       -0.0896       0.0095        -1.0533       0.9733
    3      -0.1008       -1.0616       0.9608        -0.9953       0.8945
    5       1.0317        1.2945      -0.2628         0.1189       0.9128
   13       1.2417        0.5673       0.6744         0.2207       1.0210
   18      26.4395        0.0187      26.4208         0.4928      25.9467
   19       2.0203        1.7495       0.2707         0.2860       1.7343
 Sum       30.5524        2.4788      28.0735        -0.9302      31.4825

 Contributions to Isotropic shielding for atom   21 (    32.6609 ppm):
                         Standard Origin              Atomic Origin
 NLMO      Total    Paramagnetic  Diamagnetic   Paramagnetic  Diamagnetic
    5       1.1934        0.7740       0.4195         0.2087       0.9847
   13       1.3766        0.0397       1.3369         0.3921       0.9845
   18       1.9422        1.9405       0.0018         0.1637       1.7785
   19      26.5208        0.1231      26.3977         0.4358      26.0850
 Sum       31.0331        2.8772      28.1558         1.2003      29.8328

 Contributions to Isotropic shielding for atom   22 (    32.0504 ppm):
                         Standard Origin              Atomic Origin
 NLMO      Total    Paramagnetic  Diamagnetic   Paramagnetic  Diamagnetic
    1      -0.0636       -0.1733       0.1097        -1.0285       0.9649
    2      -0.1041       -1.0923       0.9882        -0.9952       0.8911
    6       0.9821        1.2149      -0.2328         0.0655       0.9165
    9       1.2248        0.4368       0.7880         0.2784       0.9464
   10      -0.0984        0.2515      -0.3499        -1.4265       1.3280
   11       0.1124        0.0371       0.0752        -0.8981       1.0105
   20      26.2634        0.0499      26.2135         0.4842      25.7792
   21       1.9457        1.6633       0.2824         0.1423       1.8034
 Sum       30.2621        2.3879      27.8742        -3.3778      33.6399

 Contributions to Isotropic shielding for atom   23 (    32.9581 ppm):
                         Standard Origin              Atomic Origin
 NLMO      Total    Paramagnetic  Diamagnetic   Paramagnetic  Diamagnetic
    6       1.1300        0.7931       0.3369         0.1432       0.9868
    9       1.4441        0.1515       1.2926         0.5898       0.8543
   10      -0.1944        0.2030      -0.3974        -1.3435       1.1491
   20       1.9554        1.8275       0.1279         0.0936       1.8618
   21      26.5897        0.1346      26.4552         0.4332      26.1565
 Sum       30.9249        3.1097      27.8152        -0.0836      31.0085

 Contributions to Isotropic shielding for atom   24 (    35.4481 ppm):
                         Standard Origin              Atomic Origin
 NLMO      Total    Paramagnetic  Diamagnetic   Paramagnetic  Diamagnetic
    9      -0.1331        0.3631      -0.4962        -1.0265       0.8934
   10       1.9192        1.4070       0.5122         1.2907       0.6285
   21      -0.0735       -0.5872       0.5137        -1.0084       0.9349
   22      23.0350       -0.3327      23.3676        -0.1633      23.1983
   43       3.9164        1.5377       2.3787         1.9731       1.9432
   44       5.5958        2.5248       3.0710         2.4492       3.1466
 Sum       34.2596        4.9127      29.3469         3.5147      30.7449

 Contributions to Isotropic shielding for atom   25 (    32.0414 ppm):
                         Standard Origin              Atomic Origin
 NLMO      Total    Paramagnetic  Diamagnetic   Paramagnetic  Diamagnetic
   10       0.0256       -0.3670       0.3926        -1.2257       1.2513
   16       1.6017       -0.0588       1.6605         0.5762       1.0255
   23       0.8112        1.9924      -1.1812        -0.2145       1.0257
   24       1.0031        1.3976      -0.3945        -0.0343       1.0374
   25      26.3017       -0.0766      26.3783         0.4181      25.8836
   28       0.2107       -0.6896       0.9003        -0.7987       1.0094
 Sum       29.9540        2.1980      27.7560        -1.2788      31.2329

 Contributions to Isotropic shielding for atom   26 (    32.5691 ppm):
                         Standard Origin              Atomic Origin
 NLMO      Total    Paramagnetic  Diamagnetic   Paramagnetic  Diamagnetic
   12      -0.0813        0.1914      -0.2727        -1.0929       1.0116
   23       1.5273       -1.0282       2.5555         0.6073       0.9200
   24      -0.1553        0.3368      -0.4921        -1.0645       0.9092
   26      26.3363        0.2602      26.0762         0.4107      25.9256
   27       2.0124        0.8439       1.1685         0.2036       1.8088
   28       1.9026        2.0923      -0.1897         0.0510       1.8516
 Sum       31.5420        2.6964      28.8456        -0.8848      32.4268

 Contributions to Isotropic shielding for atom   27 (    32.6505 ppm):
                         Standard Origin              Atomic Origin
 NLMO      Total    Paramagnetic  Diamagnetic   Paramagnetic  Diamagnetic
   23       1.5716       -0.8354       2.4070         0.5563       1.0153
   26       2.0368        0.8438       1.1930         0.2131       1.8237
   27      26.3990        0.2754      26.1236         0.4185      25.9806
   28       1.9123        2.2050      -0.2926         0.0691       1.8432
 Sum       31.9198        2.4888      29.4310         1.2570      30.6628

 Contributions to Isotropic shielding for atom   28 (    32.4105 ppm):
                         Standard Origin              Atomic Origin
 NLMO      Total    Paramagnetic  Diamagnetic   Paramagnetic  Diamagnetic
   23       1.2642        0.2810       0.9832         0.2323       1.0319
   24      -0.1609        0.7321      -0.8930        -1.0924       0.9315
   26       1.9495        1.7616       0.1879         0.0887       1.8607
   27       1.9297        1.8640       0.0658         0.0851       1.8446
   28      26.3401        0.0127      26.3274         0.4400      25.9001
 Sum       31.3227        4.6515      26.6712        -0.2462      31.5689

 Contributions to Isotropic shielding for atom   29 (    32.7763 ppm):
                         Standard Origin              Atomic Origin
 NLMO      Total    Paramagnetic  Diamagnetic   Paramagnetic  Diamagnetic
   12      -0.0712        0.0135      -0.0847        -1.0557       0.9844
   24       1.4465       -0.4803       1.9268         0.5212       0.9253
   29      26.3467        0.2523      26.0944         0.3795      25.9672
   30       2.1289        0.3921       1.7368         0.3069       1.8220
   31       1.9875        2.0478      -0.0603         0.1409       1.8466
 Sum       31.8384        2.2254      29.6130         0.2929      31.5455

 Contributions to Isotropic shielding for atom   30 (    32.3570 ppm):
                         Standard Origin              Atomic Origin
 NLMO      Total    Paramagnetic  Diamagnetic   Paramagnetic  Diamagnetic
    8      -0.0840       -0.0066      -0.0773        -1.0180       0.9340
   10       0.0645       -0.1352       0.1997        -1.0999       1.1644
   24       1.4925       -0.7097       2.2022         0.4772       1.0153
   29       2.1025        0.4151       1.6874         0.2734       1.8291
   30      26.2396        0.2843      25.9553         0.3713      25.8683
   31       1.9499        1.8370       0.1129         0.0793       1.8706
 Sum       31.7650        1.6849      30.0802        -0.9167      32.6817

 Contributions to Isotropic shielding for atom   31 (    32.5166 ppm):
                         Standard Origin              Atomic Origin
 NLMO      Total    Paramagnetic  Diamagnetic   Paramagnetic  Diamagnetic
   23      -0.1463        0.5329      -0.6792        -1.1269       0.9806
   24       1.1622        0.8955       0.2667         0.1342       1.0280
   29       2.0037        1.6675       0.3363         0.1450       1.8588
   30       2.0587        1.5059       0.5528         0.1820       1.8767
   31      26.2915       -0.0359      26.3274         0.3951      25.8964
 Sum       31.3698        4.5659      26.8039        -0.2707      31.6405
 
 1\1\GINC-COMPUTE-10-5\SP\RHF\STO-3G\C10H20O1\YTSAI.IQUIR\03-Aug-2021\0
 \\# rhf/STO-3G nmr pop=nbo\\comment\\0,1\C,0,0.362665522,0.280549121,-
 2.999245828\C,0,-0.918908058,-0.043188181,-2.227056119\C,0,0.10465172,
 -1.310703784,-0.255849815\C,0,-0.389402024,1.160052,-0.031379043\C,0,-
 0.315792287,-0.184609553,0.715427888\C,0,-1.299837819,1.083419333,-1.2
 58881063\C,0,-0.811695181,-1.3772297,-1.481422299\O,0,0.067430172,-2.5
 75043859,0.403571644\C,0,0.565785143,-0.141505775,2.000059171\C,0,-0.0
 02147984,0.82479378,3.046345114\C,0,2.03670238,0.195446857,1.740481728
 \H,0,0.5908788,-0.515922579,-3.715604142\H,0,0.245210432,1.211083333,-
 3.56488799\H,0,1.229384741,0.396987352,-2.342301751\H,0,-1.722410552,-
 0.135456372,-2.969468104\H,0,1.135341297,-1.16051619,-0.591281116\H,0,
 0.610339567,1.480166495,-0.343982048\H,0,-0.777488521,1.941882397,0.63
 0354139\H,0,-1.333069471,-0.42501806,1.059851886\H,0,-1.293321373,2.04
 8248255,-1.779945163\H,0,-2.331281773,0.922326524,-0.919046272\H,0,-0.
 46680278,-2.170164695,-2.157172481\H,0,-1.814888401,-1.690517982,-1.16
 1110008\H,0,-0.839319007,-2.717728134,0.724589185\H,0,0.53817387,-1.13
 991734,2.456155884\H,0,0.091946265,1.868923494,2.732170401\H,0,-1.0596
 27681,0.616303774,3.238918562\H,0,0.534033273,0.718369555,3.995894985\
 H,0,2.15717761,1.198936673,1.321180468\H,0,2.500301777,-0.5214846,1.05
 7336546\H,0,2.605970344,0.161517862,2.676295641\\Version=EM64L-G09RevC
 .01\State=1-A\HF=-459.6211378\RMSD=6.546e-09\Dipole=-0.44737,0.3684751
 ,-0.0690862\Quadrupole=1.2879134,-2.1024144,0.814501,2.3604869,-0.6256
 96,-0.0266123\PG=C01 [X(C10H20O1)]\\@


 LIFE CAN ONLY BE UNDERSTOOD BACKWARD, BUT MUST
 BE LIVED FORWARD. -- KIRKEGAARD
 Job cpu time:  0 days  0 hours  0 minutes 23.9 seconds.
 File lengths (MBytes):  RWF=      5 Int=      0 D2E=      0 Chk=      1 Scr=      1
 Normal termination of Gaussian 09 at Tue Aug  3 16:36:21 2021.
