 Entering Gaussian System, Link 0=g09
 Input=/home/ytsai.iquir/menthol/03_menthol_M0094_MMFF_NMR_rhf_STO-3G_nbo.gjc
 Output=/home/ytsai.iquir/menthol/03_menthol_M0094_MMFF_NMR_rhf_STO-3G_nbo.log
 Initial command:
 /share/apps/Gaussian09/EM64T.SSE4.2-enabled/g09/l1.exe /tmp/Gau-993.inp -scrdir=/tmp/
 Entering Link 1 = /share/apps/Gaussian09/EM64T.SSE4.2-enabled/g09/l1.exe PID=       994.
  
 Copyright (c) 1988,1990,1992,1993,1995,1998,2003,2009,2011,
            Gaussian, Inc.  All Rights Reserved.
  
 This is part of the Gaussian(R) 09 program.  It is based on
 the Gaussian(R) 03 system (copyright 2003, Gaussian, Inc.),
 the Gaussian(R) 98 system (copyright 1998, Gaussian, Inc.),
 the Gaussian(R) 94 system (copyright 1995, Gaussian, Inc.),
 the Gaussian 92(TM) system (copyright 1992, Gaussian, Inc.),
 the Gaussian 90(TM) system (copyright 1990, Gaussian, Inc.),
 the Gaussian 88(TM) system (copyright 1988, Gaussian, Inc.),
 the Gaussian 86(TM) system (copyright 1986, Carnegie Mellon
 University), and the Gaussian 82(TM) system (copyright 1983,
 Carnegie Mellon University). Gaussian is a federally registered
 trademark of Gaussian, Inc.
  
 This software contains proprietary and confidential information,
 including trade secrets, belonging to Gaussian, Inc.
  
 This software is provided under written license and may be
 used, copied, transmitted, or stored only in accord with that
 written license.
  
 The following legend is applicable only to US Government
 contracts under FAR:
  
                    RESTRICTED RIGHTS LEGEND
  
 Use, reproduction and disclosure by the US Government is
 subject to restrictions as set forth in subparagraphs (a)
 and (c) of the Commercial Computer Software - Restricted
 Rights clause in FAR 52.227-19.
  
 Gaussian, Inc.
 340 Quinnipiac St., Bldg. 40, Wallingford CT 06492
  
  
 ---------------------------------------------------------------
 Warning -- This program may not be used in any manner that
 competes with the business of Gaussian, Inc. or will provide
 assistance to any competitor of Gaussian, Inc.  The licensee
 of this program is prohibited from giving any competitor of
 Gaussian, Inc. access to this program.  By using this program,
 the user acknowledges that Gaussian, Inc. is engaged in the
 business of creating and licensing software in the field of
 computational chemistry and represents and warrants to the
 licensee that it is not a competitor of Gaussian, Inc. and that
 it will not use this program in any manner prohibited above.
 ---------------------------------------------------------------
  

 Cite this work as:
 Gaussian 09, Revision C.01,
 M. J. Frisch, G. W. Trucks, H. B. Schlegel, G. E. Scuseria, 
 M. A. Robb, J. R. Cheeseman, G. Scalmani, V. Barone, B. Mennucci, 
 G. A. Petersson, H. Nakatsuji, M. Caricato, X. Li, H. P. Hratchian, 
 A. F. Izmaylov, J. Bloino, G. Zheng, J. L. Sonnenberg, M. Hada, 
 M. Ehara, K. Toyota, R. Fukuda, J. Hasegawa, M. Ishida, T. Nakajima, 
 Y. Honda, O. Kitao, H. Nakai, T. Vreven, J. A. Montgomery, Jr., 
 J. E. Peralta, F. Ogliaro, M. Bearpark, J. J. Heyd, E. Brothers, 
 K. N. Kudin, V. N. Staroverov, T. Keith, R. Kobayashi, J. Normand, 
 K. Raghavachari, A. Rendell, J. C. Burant, S. S. Iyengar, J. Tomasi, 
 M. Cossi, N. Rega, J. M. Millam, M. Klene, J. E. Knox, J. B. Cross, 
 V. Bakken, C. Adamo, J. Jaramillo, R. Gomperts, R. E. Stratmann, 
 O. Yazyev, A. J. Austin, R. Cammi, C. Pomelli, J. W. Ochterski, 
 R. L. Martin, K. Morokuma, V. G. Zakrzewski, G. A. Voth, 
 P. Salvador, J. J. Dannenberg, S. Dapprich, A. D. Daniels, 
 O. Farkas, J. B. Foresman, J. V. Ortiz, J. Cioslowski, 
 and D. J. Fox, Gaussian, Inc., Wallingford CT, 2010.
 
 ******************************************
 Gaussian 09:  EM64L-G09RevC.01 23-Sep-2011
                 3-Aug-2021 
 ******************************************
 %nprocshared=4
 Will use up to    4 processors via shared memory.
 ------------------------
 # rhf/STO-3G nmr pop=nbo
 ------------------------
 1/38=1/1;
 2/12=2,17=6,18=5,40=1/2;
 3/6=3,11=1,16=1,25=1,30=1,116=1/1,2,8,3;
 4//1;
 5/5=2,38=5/2;
 8/6=1,10=90,11=11/1;
 10/13=100,45=16/2;
 6/7=2,8=2,9=2,10=2,28=1,64=1/1,7;
 99/9=1/99;
 -------
 comment
 -------
 Charge =  0 Multiplicity = 1
 Symbolic Z-Matrix:
 6                    -2.04077  -0.16624  -3.0906 
 6                    -1.4906   -0.13245  -1.66645 
 6                     0.67264  -0.71554  -0.39369 
 6                    -0.65555   1.352     0.20801 
 6                    -0.02169   0.04751   0.75071 
 6                    -1.08775   1.28296  -1.25925 
 6                    -0.30929  -1.10166  -1.5125 
 8                     1.31089  -1.90146   0.06315 
 6                     0.85253   0.35645   2.00324 
 6                     2.22801   0.93989   1.66737 
 6                     1.01824  -0.85729   2.92443 
 1                    -2.92088   0.47899  -3.18177 
 1                    -1.29416   0.17732  -3.81464 
 1                    -2.3399   -1.18285  -3.36672 
 1                    -2.29505  -0.46337  -0.9955 
 1                     1.45614  -0.08199  -0.82647 
 1                     0.02404   2.20434   0.32031 
 1                    -1.53117   1.58687   0.82745 
 1                    -0.85062  -0.58469   1.10243 
 1                    -0.25994   1.62474  -1.89449 
 1                    -1.91348   1.98553  -1.42386 
 1                     0.26081  -1.16959  -2.4488 
 1                    -0.70305  -2.11363  -1.34887 
 1                     0.63252  -2.4659    0.47176 
 1                     0.31437   1.11054   2.5946 
 1                     2.86649   0.20782   1.16263 
 1                     2.14652   1.82107   1.02456 
 1                     2.74471   1.24878   2.58288 
 1                     1.66907  -1.62226   2.49313 
 1                     0.04968  -1.31469   3.15085 
 1                     1.46724  -0.55117   3.87611 
 
                          Input orientation:                          
 ---------------------------------------------------------------------
 Center     Atomic      Atomic             Coordinates (Angstroms)
 Number     Number       Type             X           Y           Z
 ---------------------------------------------------------------------
      1          6           0       -2.040770   -0.166238   -3.090602
      2          6           0       -1.490596   -0.132450   -1.666447
      3          6           0        0.672638   -0.715542   -0.393685
      4          6           0       -0.655554    1.352003    0.208012
      5          6           0       -0.021694    0.047506    0.750708
      6          6           0       -1.087746    1.282960   -1.259249
      7          6           0       -0.309289   -1.101663   -1.512504
      8          8           0        1.310886   -1.901459    0.063147
      9          6           0        0.852534    0.356452    2.003237
     10          6           0        2.228011    0.939894    1.667375
     11          6           0        1.018241   -0.857295    2.924428
     12          1           0       -2.920884    0.478987   -3.181770
     13          1           0       -1.294161    0.177318   -3.814635
     14          1           0       -2.339901   -1.182851   -3.366721
     15          1           0       -2.295047   -0.463373   -0.995503
     16          1           0        1.456142   -0.081994   -0.826468
     17          1           0        0.024037    2.204345    0.320308
     18          1           0       -1.531169    1.586870    0.827450
     19          1           0       -0.850624   -0.584692    1.102435
     20          1           0       -0.259935    1.624736   -1.894490
     21          1           0       -1.913484    1.985531   -1.423861
     22          1           0        0.260811   -1.169592   -2.448805
     23          1           0       -0.703055   -2.113630   -1.348872
     24          1           0        0.632519   -2.465903    0.471761
     25          1           0        0.314370    1.110536    2.594601
     26          1           0        2.866493    0.207818    1.162625
     27          1           0        2.146525    1.821066    1.024557
     28          1           0        2.744709    1.248782    2.582876
     29          1           0        1.669068   -1.622264    2.493133
     30          1           0        0.049684   -1.314689    3.150853
     31          1           0        1.467243   -0.551167    3.876106
 ---------------------------------------------------------------------
                    Distance matrix (angstroms):
                    1          2          3          4          5
     1  C    0.000000
     2  C    1.527105   0.000000
     3  C    3.864930   2.576723   0.000000
     4  C    3.886481   2.532686   2.529996   0.000000
     5  C    4.344884   2.834201   1.540771   1.548551   0.000000
     6  C    2.522357   1.526920   2.800387   1.531147   2.588965
     7  C    2.522586   1.535760   1.537865   3.016713   2.554492
     8  O    4.918407   3.737538   1.422130   3.804326   2.459060
     9  C    5.881464   4.381309   2.631876   2.547212   1.558381
    10  C    6.487246   5.108065   3.067184   3.257993   2.588012
    11  C    6.783487   5.281647   3.339073   3.880915   2.573944
    12  H    1.095092   2.171585   4.702523   4.169473   4.904678
    13  H    1.095299   2.179278   4.045788   4.239033   4.741138
    14  H    1.095090   2.171541   4.258253   4.694809   4.882733
    15  H    2.131288   1.098553   3.038574   2.726165   2.911766
    16  H    4.166749   3.064535   1.096613   2.754226   2.165237
    17  H    4.638685   3.420807   3.075096   1.095874   2.199839
    18  H    4.322524   3.029395   3.413069   1.097983   2.157324
    19  H    4.378711   2.877637   2.139118   2.142156   1.100232
    20  H    2.794574   2.157367   2.932408   2.156714   3.088930
    21  H    2.724764   2.173368   3.878800   2.155633   3.473264
    22  H    2.591505   2.180635   2.144593   3.775824   3.434825
    23  H    2.935207   2.155493   2.181643   3.799574   3.089174
    24  H    5.012521   3.811109   1.953041   4.037958   2.612093
    25  H    6.284773   4.791602   3.520337   2.587444   2.154742
    26  H    6.504698   5.206117   2.843887   3.824299   2.921815
    27  H    6.198173   4.928121   3.258548   2.956080   2.814548
    28  H    7.555888   6.156489   4.124556   4.148786   3.528865
    29  H    6.860103   5.431863   3.185708   4.412699   2.946668
    30  H    6.681669   5.193894   3.648397   4.033476   2.760683
    31  H    7.809568   6.296351   4.346209   4.645776   3.513325
                    6          7          8          9         10
     6  C    0.000000
     7  C    2.521222   0.000000
     8  O    4.200321   2.397357   0.000000
     9  C    3.907291   3.979494   3.012009   0.000000
    10  C    4.435883   4.551645   3.389388   1.531386   0.000000
    11  C    5.149663   4.637717   3.059877   1.532721   2.504718
    12  H    2.775402   3.479272   5.839854   6.413892   7.087860
    13  H    2.791962   2.811685   5.113197   6.203872   6.560461
    14  H    3.477004   2.751017   5.060498   6.434093   7.121375
    15  H    2.139350   2.148939   4.023877   4.424005   5.433058
    16  H    2.919206   2.151073   2.030509   2.926398   2.803442
    17  H    2.140096   3.794733   4.310422   2.633128   2.875922
    18  H    2.154831   3.767836   4.563976   2.928898   3.905827
    19  H    3.020249   2.719965   2.736078   2.144282   3.481596
    20  H    1.098004   2.753471   4.328265   4.247165   4.398382
    21  H    1.096607   3.480239   5.264641   4.695717   5.272672
    22  H    3.041161   1.098311   2.819253   4.743377   5.026205
    23  H    3.419480   1.098137   2.468760   4.444975   5.197393
    24  H    4.473218   2.585626   0.972494   3.218620   3.946459
    25  H    4.104609   4.706494   4.058746   1.099079   2.133281
    26  H    4.759980   4.353924   2.842150   2.187407   1.094699
    27  H    3.995727   4.583672   3.934437   2.185708   1.093764
    28  H    5.426860   5.623490   4.281226   2.170843   1.095688
    29  H    5.488235   4.497783   2.472059   2.195915   2.749354
    30  H    5.243142   4.682002   3.386571   2.180437   3.468279
    31  H    6.021948   5.700547   4.048011   2.170087   2.771376
                   11         12         13         14         15
    11  C    0.000000
    12  H    7.388370   0.000000
    13  H    7.199486   1.771369   0.000000
    14  H    7.138743   1.770156   1.773206   0.000000
    15  H    5.147709   2.461601   3.059373   2.478374   0.000000
    16  H    3.855135   5.002050   4.069466   4.698374   3.774313
    17  H    4.140473   4.890192   4.790015   5.536740   3.771767
    18  H    4.107402   4.385495   4.857156   5.090822   2.847835
    19  H    2.624238   4.875634   4.995494   4.748589   2.549984
    20  H    5.569218   3.170249   2.617556   3.791605   3.051239
    21  H    5.965256   2.524832   3.060882   3.741013   2.515196
    22  H    5.435334   3.657627   2.469331   2.757979   3.023779
    23  H    4.775178   3.872976   3.417285   2.759951   2.320055
    24  H    2.958374   5.886199   5.391837   5.021499   3.838441
    25  H    2.115793   6.650728   6.673573   6.916801   4.709043
    26  H    2.766667   7.241619   6.487303   7.039565   5.634670
    27  H    3.472197   6.721086   6.161007   6.959515   5.387658
    28  H    2.744615   8.119278   7.641247   8.195353   6.413689
    29  H    1.093055   7.595225   7.197719   7.113565   5.406275
    30  H    1.094797   7.221058   7.249141   6.943074   4.838881
    31  H    1.095906   8.374395   8.203874   8.206821   6.155900
                   16         17         18         19         20
    16  H    0.000000
    17  H    2.931444   0.000000
    18  H    3.800602   1.748466   0.000000
    19  H    3.048694   3.025802   2.292256   0.000000
    20  H    2.645472   2.306929   3.004401   3.769887   0.000000
    21  H    3.998239   2.616102   2.318080   3.757377   1.756669
    22  H    2.289904   4.371213   4.641457   3.766789   2.895982
    23  H    3.010412   4.686122   4.372168   2.892807   3.803872
    24  H    2.836684   4.712155   4.607931   2.477180   4.809257
    25  H    3.798616   2.540299   2.599179   2.541174   4.554796
    26  H    2.455519   3.574238   4.620991   3.801138   4.596539
    27  H    2.743093   2.268881   3.690410   3.844039   3.788196
    28  H    3.880077   3.665293   4.634540   4.298808   5.405186
    29  H    3.665722   4.697897   4.828516   3.059321   5.789241
    30  H    4.395082   4.516220   4.039350   2.353608   5.847357
    31  H    4.725933   4.724340   4.780793   3.614815   6.404489
                   21         22         23         24         25
    21  H    0.000000
    22  H    3.966468   0.000000
    23  H    4.274796   1.740718   0.000000
    24  H    5.467246   3.216877   2.285292   0.000000
    25  H    4.677284   5.535142   5.194360   4.171161   0.000000
    26  H    5.718247   4.661466   4.943522   3.552002   3.062481
    27  H    4.743993   4.956228   5.406949   4.579945   2.515290
    28  H    6.188336   6.110327   6.217036   4.766239   2.434297
    29  H    6.418232   5.158570   4.541961   2.423242   3.051836
    30  H    5.972729   5.605515   4.631679   2.973638   2.502237
    31  H    6.778923   6.468572   5.869573   3.994063   2.394291
                   26         27         28         29         30
    26  H    0.000000
    27  H    1.772001   0.000000
    28  H    1.765091   1.764566   0.000000
    29  H    2.559937   3.773752   3.067240   0.000000
    30  H    3.769017   4.330224   3.762598   1.774712   0.000000
    31  H    3.145939   3.770974   2.558159   1.760852   1.765908
                   31
    31  H    0.000000
 Stoichiometry    C10H20O
 Framework group  C1[X(C10H20O)]
 Deg. of freedom    87
 Full point group                 C1      NOp   1
 Largest Abelian subgroup         C1      NOp   1
 Largest concise Abelian subgroup C1      NOp   1
                         Standard orientation:                         
 ---------------------------------------------------------------------
 Center     Atomic      Atomic             Coordinates (Angstroms)
 Number     Number       Type             X           Y           Z
 ---------------------------------------------------------------------
      1          6           0       -3.719247    0.141119   -0.078928
      2          6           0       -2.231235   -0.032027   -0.375390
      3          6           0        0.043789    0.819819    0.483752
      4          6           0       -0.244587   -1.594689   -0.214726
      5          6           0        0.589442   -0.305561   -0.416114
      6          6           0       -1.701862   -1.349580    0.186129
      7          6           0       -1.422930    1.156088    0.166443
      8          8           0        0.806203    2.014787    0.368728
      9          6           0        2.108999   -0.622651   -0.278453
     10          6           0        2.582518   -0.757950    1.171588
     11          6           0        2.994445    0.386458   -1.017992
     12          1           0       -4.300136   -0.675951   -0.519599
     13          1           0       -3.912620    0.149292    0.999135
     14          1           0       -4.091343    1.081722   -0.498493
     15          1           0       -2.114446   -0.056412   -1.467445
     16          1           0        0.106003    0.505350    1.532466
     17          1           0        0.207205   -2.250450    0.538136
     18          1           0       -0.223403   -2.162592   -1.154196
     19          1           0        0.434601    0.012066   -1.458058
     20          1           0       -1.776253   -1.336570    1.281532
     21          1           0       -2.314784   -2.192560   -0.154835
     22          1           0       -1.881228    1.550708    1.083244
     23          1           0       -1.482730    1.981279   -0.555629
     24          1           0        0.780859    2.295418   -0.562051
     25          1           0        2.282674   -1.590465   -0.769521
     26          1           0        2.536107    0.197488    1.703894
     27          1           0        1.982861   -1.485792    1.725642
     28          1           0        3.623152   -1.099524    1.202255
     29          1           0        3.016663    1.361664   -0.524790
     30          1           0        2.653733    0.527790   -2.048779
     31          1           0        4.027479    0.023092   -1.060582
 ---------------------------------------------------------------------
 Rotational constants (GHZ):      1.9347686      0.6827966      0.5823690
 Standard basis: STO-3G (5D, 7F)
 There are    75 symmetry adapted basis functions of A   symmetry.
 Integral buffers will be    131072 words long.
 Raffenetti 1 integral format.
 Two-electron integral symmetry is turned on.
    75 basis functions,   225 primitive gaussians,    75 cartesian basis functions
    44 alpha electrons       44 beta electrons
       nuclear repulsion energy       692.3144071709 Hartrees.
 NAtoms=   31 NActive=   31 NUniq=   31 SFac= 1.00D+00 NAtFMM=   60 NAOKFM=F Big=F
 One-electron integrals computed using PRISM.
 NBasis=    75 RedAO= T  NBF=    75
 NBsUse=    75 1.00D-06 NBFU=    75
 Harris functional with IExCor=  205 diagonalized for initial guess.
 ExpMin= 1.69D-01 ExpMax= 1.31D+02 ExpMxC= 1.31D+02 IAcc=1 IRadAn=         1 AccDes= 0.00D+00
 HarFok:  IExCor=  205 AccDes= 0.00D+00 IRadAn=         1 IDoV= 1
 ScaDFX=  1.000000  1.000000  1.000000  1.000000
 FoFCou: FMM=F IPFlag=           0 FMFlag=      100000 FMFlg1=           0
         NFxFlg=           0 DoJE=T BraDBF=F KetDBF=T FulRan=T
         Omega=  0.000000  0.000000  1.000000  0.000000  0.000000 ICntrl=     500 IOpCl=  0
         NMat0=    1 NMatS0=    1 NMatT0=    0 NMatD0=    1 NMtDS0=    0 NMtDT0=    0
         I1Cent=           4 NGrid=           0.
 Petite list used in FoFCou.
 Initial guess orbital symmetries:
       Occupied  (A) (A) (A) (A) (A) (A) (A) (A) (A) (A) (A) (A)
                 (A) (A) (A) (A) (A) (A) (A) (A) (A) (A) (A) (A)
                 (A) (A) (A) (A) (A) (A) (A) (A) (A) (A) (A) (A)
                 (A) (A) (A) (A) (A) (A) (A) (A)
       Virtual   (A) (A) (A) (A) (A) (A) (A) (A) (A) (A) (A) (A)
                 (A) (A) (A) (A) (A) (A) (A) (A) (A) (A) (A) (A)
                 (A) (A) (A) (A) (A) (A) (A)
 The electronic state of the initial guess is 1-A.
 Requested convergence on RMS density matrix=1.00D-08 within 128 cycles.
 Requested convergence on MAX density matrix=1.00D-06.
 Requested convergence on             energy=1.00D-06.
 No special actions if energy rises.
 Keep R1 ints in memory in canonical form, NReq=4898789.
 SCF Done:  E(RHF) =  -459.612596309     A.U. after   10 cycles
             Convg  =    0.8565D-08             -V/T =  2.0089
 Range of M.O.s used for correlation:     1    75
 NBasis=    75 NAE=    44 NBE=    44 NFC=     0 NFV=     0
 NROrb=     75 NOA=    44 NOB=    44 NVA=    31 NVB=    31
          Differentiating once with respect to magnetic field using GIAOs.
          Electric field/nuclear overlap derivatives assumed to be zero.
          Keep R3 ints in memory in canonical form, NReq=4863575.
 FoFCou: FMM=F IPFlag=           0 FMFlag=           0 FMFlg1=           0
         NFxFlg=           0 DoJE=F BraDBF=F KetDBF=T FulRan=T
         Omega=  0.000000  0.000000  1.000000  0.000000  0.000000 ICntrl=    6100 IOpCl=  0
         NMat0=    1 NMatS0=    1 NMatT0=    0 NMatD0=    1 NMtDS0=    0 NMtDT0=    0
         I1Cent=           7 NGrid=          31.
 Symmetry not used in FoFCou.
          There are     3 degrees of freedom in the 1st order CPHF.  IDoFFX=0.
      3 vectors produced by pass  0 Test12= 4.55D-14 3.33D-08 XBig12= 7.44D+00 3.92D-01.
 AX will form     3 AO Fock derivatives at one time.
      3 vectors produced by pass  1 Test12= 4.55D-14 3.33D-08 XBig12= 1.11D-02 1.89D-02.
      3 vectors produced by pass  2 Test12= 4.55D-14 3.33D-08 XBig12= 6.62D-05 2.39D-03.
      3 vectors produced by pass  3 Test12= 4.55D-14 3.33D-08 XBig12= 1.53D-06 2.75D-04.
      3 vectors produced by pass  4 Test12= 4.55D-14 3.33D-08 XBig12= 2.02D-08 4.32D-05.
      3 vectors produced by pass  5 Test12= 4.55D-14 3.33D-08 XBig12= 3.08D-10 3.07D-06.
      3 vectors produced by pass  6 Test12= 4.55D-14 3.33D-08 XBig12= 3.02D-12 2.67D-07.
 Inverted reduced A of dimension    21 with in-core refinement.
 Calculating GIAO nuclear magnetic shielding tensors.
 SCF GIAO Magnetic shielding tensor (ppm):
      1  C    Isotropic =   221.2227   Anisotropy =    27.7648
   XX=   239.4178   YX=    -1.4149   ZX=    -0.7573
   XY=    -2.4649   YY=   212.1088   ZY=     1.3705
   XZ=    -3.2814   YZ=     4.0311   ZZ=   212.1416
   Eigenvalues:   209.4243   214.5113   239.7326
      2  C    Isotropic =   216.8198   Anisotropy =     9.9349
   XX=   223.2920   YX=    -0.3655   ZX=     1.3805
   XY=    -0.3145   YY=   218.8103   ZY=    -1.3593
   XZ=     1.2667   YZ=    -0.0292   ZZ=   208.3571
   Eigenvalues:   208.1994   218.8170   223.4430
      3  C    Isotropic =   189.4498   Anisotropy =    42.5918
   XX=   194.0869   YX=    17.9509   ZX=    -6.0531
   XY=    15.3009   YY=   205.8721   ZY=     0.2987
   XZ=    -5.4601   YZ=    -0.2920   ZZ=   168.3905
   Eigenvalues:   166.7546   183.7506   217.8443
      4  C    Isotropic =   217.2047   Anisotropy =    21.3327
   XX=   229.4177   YX=     2.6626   ZX=    -2.9068
   XY=     5.3145   YY=   221.7784   ZY=     1.1054
   XZ=    -4.1191   YZ=    -0.2658   ZZ=   200.4179
   Eigenvalues:   199.9612   220.2263   231.4264
      5  C    Isotropic =   209.7594   Anisotropy =    14.7314
   XX=   219.1874   YX=    -2.6545   ZX=     1.8144
   XY=    -0.8115   YY=   205.8603   ZY=     2.3032
   XZ=     1.7172   YZ=    -0.1525   ZZ=   204.2305
   Eigenvalues:   203.3426   206.3553   219.5803
      6  C    Isotropic =   217.5500   Anisotropy =    17.1526
   XX=   224.4276   YX=    -4.3831   ZX=    -0.2610
   XY=    -7.0103   YY=   220.8407   ZY=    -4.6042
   XZ=     1.2266   YZ=    -3.5818   ZZ=   207.3815
   Eigenvalues:   206.1639   217.5010   228.9850
      7  C    Isotropic =   213.1329   Anisotropy =    27.6870
   XX=   229.3487   YX=     5.9930   ZX=     4.2366
   XY=     5.8420   YY=   212.6543   ZY=     0.5205
   XZ=     3.0970   YZ=    -0.5230   ZZ=   197.3957
   Eigenvalues:   196.9500   210.8579   231.5909
      8  O    Isotropic =   348.9975   Anisotropy =    89.9156
   XX=   329.7247   YX=    -9.1325   ZX=    22.2599
   XY=     0.8919   YY=   318.6780   ZY=   -10.2734
   XZ=     9.0823   YZ=   -39.2033   ZZ=   398.5897
   Eigenvalues:   311.6328   326.4184   408.9412
      9  C    Isotropic =   212.7950   Anisotropy =    17.7196
   XX=   224.5481   YX=    -0.6884   ZX=    -1.9078
   XY=    -1.3061   YY=   207.9585   ZY=    -3.6542
   XZ=     1.4272   YZ=    -1.9492   ZZ=   205.8784
   Eigenvalues:   203.9014   209.8755   224.6081
     10  C    Isotropic =   224.2603   Anisotropy =    20.0147
   XX=   220.9749   YX=    -2.8317   ZX=     7.1001
   XY=    -0.8126   YY=   217.1026   ZY=    -3.1426
   XZ=     4.3256   YZ=    -4.3291   ZZ=   234.7036
   Eigenvalues:   216.1998   218.9778   237.6034
     11  C    Isotropic =   220.4109   Anisotropy =    27.5468
   XX=   224.0176   YX=     8.3883   ZX=    -8.9687
   XY=    10.2128   YY=   217.0181   ZY=   -12.1780
   XZ=    -5.7044   YZ=    -9.3869   ZZ=   220.1970
   Eigenvalues:   207.2377   215.2196   238.7754
     12  H    Isotropic =    32.5184   Anisotropy =    13.9883
   XX=    37.5894   YX=     5.0484   ZX=     3.3696
   XY=     4.7838   YY=    32.1000   ZY=     2.9015
   XZ=     3.2874   YZ=     3.0034   ZZ=    27.8659
   Eigenvalues:    26.2722    29.4391    41.8440
     13  H    Isotropic =    32.6806   Anisotropy =    11.7765
   XX=    34.0375   YX=    -0.7517   ZX=    -5.0359
   XY=    -0.5335   YY=    27.3666   ZY=     0.4647
   XZ=    -4.9269   YZ=     0.5035   ZZ=    36.6377
   Eigenvalues:    27.3053    30.2049    40.5316
     14  H    Isotropic =    32.4142   Anisotropy =    13.5396
   XX=    35.1968   YX=    -5.5264   ZX=     2.4263
   XY=    -5.3073   YY=    34.5029   ZY=    -3.4760
   XZ=     2.3980   YZ=    -3.1131   ZZ=    27.5429
   Eigenvalues:    26.2203    29.5818    41.4406
     15  H    Isotropic =    32.7477   Anisotropy =    10.4127
   XX=    31.6229   YX=    -0.4719   ZX=     1.0286
   XY=    -0.5275   YY=    27.0697   ZY=    -0.1881
   XZ=     1.0528   YZ=    -0.1692   ZZ=    39.5505
   Eigenvalues:    27.0152    31.5385    39.6895
     16  H    Isotropic =    31.5086   Anisotropy =     7.2797
   XX=    30.7440   YX=    -0.9326   ZX=     0.3545
   XY=    -0.9909   YY=    27.5690   ZY=    -1.0741
   XZ=     1.1793   YZ=     0.1001   ZZ=    36.2127
   Eigenvalues:    27.2925    30.8715    36.3617
     17  H    Isotropic =    32.4714   Anisotropy =    11.3204
   XX=    33.7275   YX=    -1.8899   ZX=     2.6099
   XY=    -2.0242   YY=    34.7738   ZY=    -5.9796
   XZ=     2.5791   YZ=    -6.0474   ZZ=    28.9130
   Eigenvalues:    24.9862    32.4097    40.0184
     18  H    Isotropic =    32.3304   Anisotropy =    13.1928
   XX=    30.1274   YX=     1.0371   ZX=    -1.2022
   XY=     0.7117   YY=    33.8591   ZY=     7.6581
   XZ=    -1.0447   YZ=     7.7021   ZZ=    33.0046
   Eigenvalues:    25.3219    30.5436    41.1256
     19  H    Isotropic =    33.0762   Anisotropy =     8.1979
   XX=    33.3658   YX=     0.1690   ZX=     0.4624
   XY=    -0.1407   YY=    27.9746   ZY=    -2.8194
   XZ=    -0.2768   YZ=    -2.4291   ZZ=    37.8882
   Eigenvalues:    27.3226    33.3646    38.5415
     20  H    Isotropic =    32.7823   Anisotropy =    10.9906
   XX=    31.0987   YX=    -0.0895   ZX=    -2.5984
   XY=     0.0304   YY=    29.1165   ZY=    -3.6288
   XZ=    -2.4998   YZ=    -3.8209   ZZ=    38.1317
   Eigenvalues:    27.5208    30.7167    40.1094
     21  H    Isotropic =    32.5044   Anisotropy =    14.1321
   XX=    34.4707   YX=     5.3711   ZX=     1.2216
   XY=     5.2399   YY=    37.5977   ZY=     1.9769
   XZ=     1.2156   YZ=     2.2868   ZZ=    25.4449
   Eigenvalues:    25.0682    30.5193    41.9259
     22  H    Isotropic =    32.0708   Anisotropy =    12.0657
   XX=    33.4335   YX=    -2.3725   ZX=    -3.7380
   XY=    -1.8865   YY=    30.1102   ZY=     5.9138
   XZ=    -3.3038   YZ=     6.2825   ZZ=    32.6687
   Eigenvalues:    25.1127    30.9851    40.1146
     23  H    Isotropic =    32.7028   Anisotropy =    11.5416
   XX=    31.5545   YX=    -0.5784   ZX=     1.2622
   XY=    -0.5460   YY=    37.5303   ZY=    -5.3570
   XZ=     2.0423   YZ=    -5.6269   ZZ=    29.0236
   Eigenvalues:    26.0476    31.6636    40.3972
     24  H    Isotropic =    35.5000   Anisotropy =    14.1125
   XX=    30.7373   YX=     2.6693   ZX=    -0.5122
   XY=     2.8954   YY=    37.2296   ZY=    -5.6574
   XZ=    -2.0304   YZ=    -7.2088   ZZ=    38.5330
   Eigenvalues:    29.4574    32.1341    44.9083
     25  H    Isotropic =    32.5273   Anisotropy =    11.6706
   XX=    31.8013   YX=    -2.2725   ZX=    -2.0994
   XY=    -2.2588   YY=    36.7707   ZY=     5.1824
   XZ=    -2.1383   YZ=     4.9308   ZZ=    29.0100
   Eigenvalues:    26.3473    30.9269    40.3078
     26  H    Isotropic =    32.3105   Anisotropy =     9.5323
   XX=    29.8470   YX=    -0.5823   ZX=     3.0548
   XY=    -0.5269   YY=    33.0465   ZY=     4.6091
   XZ=     3.0743   YZ=     4.6965   ZZ=    34.0381
   Eigenvalues:    26.7130    31.5532    38.6654
     27  H    Isotropic =    32.5582   Anisotropy =    11.0408
   XX=    31.8474   YX=     2.3354   ZX=    -0.0110
   XY=     2.2864   YY=    31.8752   ZY=    -6.4909
   XZ=    -0.2137   YZ=    -6.7164   ZZ=    33.9519
   Eigenvalues:    25.7498    32.0061    39.9187
     28  H    Isotropic =    32.5069   Anisotropy =    14.9779
   XX=    39.5850   YX=    -4.5831   ZX=     3.5794
   XY=    -4.5521   YY=    28.1986   ZY=    -2.2735
   XZ=     3.4813   YZ=    -2.1593   ZZ=    29.7371
   Eigenvalues:    26.2390    28.7895    42.4922
     29  H    Isotropic =    32.1780   Anisotropy =     9.1772
   XX=    31.7697   YX=     2.5465   ZX=    -1.1376
   XY=     2.6489   YY=    37.1097   ZY=     1.6988
   XZ=    -1.8154   YZ=     1.9844   ZZ=    27.6548
   Eigenvalues:    26.5267    31.7112    38.2962
     30  H    Isotropic =    32.7594   Anisotropy =    11.9496
   XX=    30.8753   YX=     0.8510   ZX=    -0.9244
   XY=     0.5078   YY=    27.8082   ZY=    -3.9452
   XZ=    -0.8828   YZ=    -3.2763   ZZ=    39.5946
   Eigenvalues:    26.7487    30.8036    40.7257
     31  H    Isotropic =    32.4015   Anisotropy =    14.8691
   XX=    41.3730   YX=    -1.6602   ZX=    -3.3837
   XY=    -1.2995   YY=    27.5419   ZY=    -1.0289
   XZ=    -3.4736   YZ=    -1.0098   ZZ=    28.2896
   Eigenvalues:    26.1060    28.7843    42.3143
 End of Minotr Frequency-dependent properties file   721 does not exist.
 End of Minotr Frequency-dependent properties file   722 does not exist.

 **********************************************************************

            Population analysis using the SCF density.

 **********************************************************************

 Orbital symmetries:
       Occupied  (A) (A) (A) (A) (A) (A) (A) (A) (A) (A) (A) (A)
                 (A) (A) (A) (A) (A) (A) (A) (A) (A) (A) (A) (A)
                 (A) (A) (A) (A) (A) (A) (A) (A) (A) (A) (A) (A)
                 (A) (A) (A) (A) (A) (A) (A) (A)
       Virtual   (A) (A) (A) (A) (A) (A) (A) (A) (A) (A) (A) (A)
                 (A) (A) (A) (A) (A) (A) (A) (A) (A) (A) (A) (A)
                 (A) (A) (A) (A) (A) (A) (A)
 The electronic state is 1-A.
 Alpha  occ. eigenvalues --  -20.23953 -11.08562 -11.04824 -11.04629 -11.04241
 Alpha  occ. eigenvalues --  -11.03733 -11.03626 -11.03583 -11.03325 -11.02671
 Alpha  occ. eigenvalues --  -11.02634  -1.28059  -1.08275  -1.03689  -0.96961
 Alpha  occ. eigenvalues --   -0.94565  -0.88672  -0.87991  -0.79852  -0.78812
 Alpha  occ. eigenvalues --   -0.73784  -0.69065  -0.62846  -0.60528  -0.59463
 Alpha  occ. eigenvalues --   -0.57121  -0.55598  -0.53868  -0.53083  -0.52335
 Alpha  occ. eigenvalues --   -0.51912  -0.49997  -0.49252  -0.47822  -0.46677
 Alpha  occ. eigenvalues --   -0.45963  -0.44483  -0.43308  -0.42443  -0.42268
 Alpha  occ. eigenvalues --   -0.39413  -0.39080  -0.36017  -0.32394
 Alpha virt. eigenvalues --    0.53962   0.54539   0.56617   0.59999   0.61581
 Alpha virt. eigenvalues --    0.61703   0.62206   0.63950   0.64681   0.66608
 Alpha virt. eigenvalues --    0.67571   0.68759   0.70108   0.71707   0.72133
 Alpha virt. eigenvalues --    0.72350   0.73179   0.74162   0.75439   0.76538
 Alpha virt. eigenvalues --    0.77030   0.77597   0.78938   0.79627   0.79856
 Alpha virt. eigenvalues --    0.81381   0.81975   0.82151   0.85147   0.85876
 Alpha virt. eigenvalues --    0.87577
          Condensed to atoms (all electrons):
              1          2          3          4          5          6
     1  C    4.738737   0.366024   0.000653   0.000738   0.000019  -0.023841
     2  C    0.366024   4.744586  -0.018599  -0.022280  -0.006399   0.364556
     3  C    0.000653  -0.018599   4.741646  -0.021269   0.355260  -0.007036
     4  C    0.000738  -0.022280  -0.021269   4.762948   0.358040   0.361248
     5  C    0.000019  -0.006399   0.355260   0.358040   4.795733  -0.019246
     6  C   -0.023841   0.364556  -0.007036   0.361248  -0.019246   4.757081
     7  C   -0.023979   0.360521   0.355989  -0.002793  -0.023834  -0.023680
     8  O   -0.000001   0.000255   0.269844   0.000226  -0.016807   0.000005
     9  C    0.000000   0.000020  -0.017568  -0.021508   0.358874   0.000587
    10  C    0.000000   0.000000  -0.002650  -0.001129  -0.020549   0.000001
    11  C    0.000000   0.000000  -0.000128   0.000659  -0.021631  -0.000004
    12  H    0.382315  -0.020296  -0.000016   0.000013   0.000000  -0.002204
    13  H    0.382285  -0.020756   0.000013   0.000006   0.000000  -0.002185
    14  H    0.382444  -0.020349   0.000010  -0.000018   0.000000   0.001296
    15  H   -0.024659   0.382313   0.000100  -0.002427  -0.000209  -0.024932
    16  H   -0.000011   0.000433   0.379574  -0.001831  -0.024934  -0.000107
    17  H   -0.000016   0.001274  -0.000183   0.382349  -0.020571  -0.023290
    18  H   -0.000009  -0.000094   0.001210   0.382290  -0.022570  -0.022744
    19  H    0.000000  -0.000106  -0.026113  -0.023608   0.379398   0.000056
    20  H   -0.001907  -0.023222  -0.000140  -0.022918   0.000124   0.381613
    21  H   -0.002515  -0.020683   0.000059  -0.021653   0.001092   0.383397
    22  H   -0.005062  -0.021165  -0.022651   0.000011   0.001204  -0.000136
    23  H   -0.000073  -0.021909  -0.021223   0.000038  -0.000102   0.001275
    24  H    0.000000  -0.000002  -0.042388  -0.000010  -0.002883   0.000002
    25  H    0.000000   0.000000   0.001043  -0.004382  -0.023582   0.000035
    26  H    0.000000   0.000000  -0.000513   0.000035  -0.001375   0.000000
    27  H    0.000000   0.000000  -0.000122  -0.000536  -0.001829  -0.000015
    28  H    0.000000   0.000000   0.000028   0.000010   0.001131   0.000000
    29  H    0.000000   0.000000   0.000040  -0.000004  -0.000925   0.000000
    30  H    0.000000   0.000000   0.000027   0.000027  -0.002868   0.000000
    31  H    0.000000   0.000000  -0.000010  -0.000016   0.001166   0.000000
              7          8          9         10         11         12
     1  C   -0.023979  -0.000001   0.000000   0.000000   0.000000   0.382315
     2  C    0.360521   0.000255   0.000020   0.000000   0.000000  -0.020296
     3  C    0.355989   0.269844  -0.017568  -0.002650  -0.000128  -0.000016
     4  C   -0.002793   0.000226  -0.021508  -0.001129   0.000659   0.000013
     5  C   -0.023834  -0.016807   0.358874  -0.020549  -0.021631   0.000000
     6  C   -0.023680   0.000005   0.000587   0.000001  -0.000004  -0.002204
     7  C    4.787990  -0.020749   0.000547   0.000008  -0.000005   0.001289
     8  O   -0.020749   7.845053  -0.000240  -0.000081  -0.001032   0.000000
     9  C    0.000547  -0.000240   4.736512   0.364366   0.364336   0.000000
    10  C    0.000008  -0.000081   0.364366   4.741744  -0.025670   0.000000
    11  C   -0.000005  -0.001032   0.364336  -0.025670   4.747774   0.000000
    12  H    0.001289   0.000000   0.000000   0.000000   0.000000   0.630410
    13  H   -0.002295   0.000000   0.000000   0.000000   0.000000  -0.021751
    14  H   -0.002143   0.000000   0.000000   0.000000   0.000000  -0.021596
    15  H   -0.024193  -0.000002   0.000000   0.000000   0.000000  -0.002400
    16  H   -0.024763  -0.019346  -0.001384  -0.000470   0.000003   0.000000
    17  H    0.000015  -0.000003  -0.004355  -0.000535   0.000026  -0.000001
    18  H    0.000003  -0.000004  -0.000272   0.000028  -0.000001   0.000001
    19  H   -0.002539  -0.000814  -0.024552   0.001135  -0.004290   0.000000
    20  H   -0.002393   0.000000  -0.000007   0.000005   0.000000   0.000010
    21  H    0.001245   0.000000  -0.000010   0.000000   0.000000   0.000213
    22  H    0.381920   0.000279  -0.000012   0.000000   0.000000   0.000068
    23  H    0.380099  -0.002795  -0.000009   0.000000   0.000000  -0.000023
    24  H   -0.003194   0.257698  -0.000013   0.000024  -0.000403   0.000000
    25  H   -0.000014  -0.000007   0.381863  -0.024474  -0.025833   0.000000
    26  H    0.000005   0.000119  -0.020152   0.382916  -0.002570   0.000000
    27  H   -0.000002   0.000006  -0.019846   0.381997   0.001317   0.000000
    28  H    0.000000   0.000000  -0.020021   0.382376  -0.002124   0.000000
    29  H    0.000000   0.000081  -0.019780  -0.002726   0.382672   0.000000
    30  H   -0.000001   0.000008  -0.020390   0.001301   0.381773   0.000000
    31  H    0.000000   0.000014  -0.020099  -0.001748   0.381814   0.000000
             13         14         15         16         17         18
     1  C    0.382285   0.382444  -0.024659  -0.000011  -0.000016  -0.000009
     2  C   -0.020756  -0.020349   0.382313   0.000433   0.001274  -0.000094
     3  C    0.000013   0.000010   0.000100   0.379574  -0.000183   0.001210
     4  C    0.000006  -0.000018  -0.002427  -0.001831   0.382349   0.382290
     5  C    0.000000   0.000000  -0.000209  -0.024934  -0.020571  -0.022570
     6  C   -0.002185   0.001296  -0.024932  -0.000107  -0.023290  -0.022744
     7  C   -0.002295  -0.002143  -0.024193  -0.024763   0.000015   0.000003
     8  O    0.000000   0.000000  -0.000002  -0.019346  -0.000003  -0.000004
     9  C    0.000000   0.000000   0.000000  -0.001384  -0.004355  -0.000272
    10  C    0.000000   0.000000   0.000000  -0.000470  -0.000535   0.000028
    11  C    0.000000   0.000000   0.000000   0.000003   0.000026  -0.000001
    12  H   -0.021751  -0.021596  -0.002400   0.000000  -0.000001   0.000001
    13  H    0.629714  -0.021619   0.001915   0.000002   0.000000   0.000000
    14  H   -0.021619   0.629936  -0.002298   0.000000   0.000000   0.000000
    15  H    0.001915  -0.002298   0.655308  -0.000022   0.000010   0.000290
    16  H    0.000002   0.000000  -0.000022   0.633404   0.000219  -0.000002
    17  H    0.000000   0.000000   0.000010   0.000219   0.642738  -0.024217
    18  H    0.000000   0.000000   0.000290  -0.000002  -0.024217   0.647868
    19  H    0.000000   0.000000  -0.000485   0.001912   0.001839  -0.006016
    20  H    0.000386   0.000000   0.002009  -0.000404  -0.005851   0.001963
    21  H   -0.000007   0.000024  -0.001952   0.000004   0.000269  -0.005746
    22  H    0.000342  -0.000089   0.001866  -0.005983   0.000002   0.000001
    23  H    0.000002   0.000212  -0.005554   0.001707   0.000001   0.000001
    24  H    0.000000   0.000000   0.000005   0.003653   0.000000   0.000000
    25  H    0.000000   0.000000   0.000000  -0.000005  -0.000173   0.000158
    26  H    0.000000   0.000000   0.000000  -0.000709   0.000022  -0.000002
    27  H    0.000000   0.000000   0.000000  -0.000068  -0.000178   0.000016
    28  H    0.000000   0.000000   0.000000   0.000007  -0.000028   0.000000
    29  H    0.000000   0.000000   0.000000   0.000001   0.000000  -0.000001
    30  H    0.000000   0.000000   0.000000  -0.000001   0.000001   0.000004
    31  H    0.000000   0.000000   0.000000   0.000000  -0.000001   0.000000
             19         20         21         22         23         24
     1  C    0.000000  -0.001907  -0.002515  -0.005062  -0.000073   0.000000
     2  C   -0.000106  -0.023222  -0.020683  -0.021165  -0.021909  -0.000002
     3  C   -0.026113  -0.000140   0.000059  -0.022651  -0.021223  -0.042388
     4  C   -0.023608  -0.022918  -0.021653   0.000011   0.000038  -0.000010
     5  C    0.379398   0.000124   0.001092   0.001204  -0.000102  -0.002883
     6  C    0.000056   0.381613   0.383397  -0.000136   0.001275   0.000002
     7  C   -0.002539  -0.002393   0.001245   0.381920   0.380099  -0.003194
     8  O   -0.000814   0.000000   0.000000   0.000279  -0.002795   0.257698
     9  C   -0.024552  -0.000007  -0.000010  -0.000012  -0.000009  -0.000013
    10  C    0.001135   0.000005   0.000000   0.000000   0.000000   0.000024
    11  C   -0.004290   0.000000   0.000000   0.000000   0.000000  -0.000403
    12  H    0.000000   0.000010   0.000213   0.000068  -0.000023   0.000000
    13  H    0.000000   0.000386  -0.000007   0.000342   0.000002   0.000000
    14  H    0.000000   0.000000   0.000024  -0.000089   0.000212   0.000000
    15  H   -0.000485   0.002009  -0.001952   0.001866  -0.005554   0.000005
    16  H    0.001912  -0.000404   0.000004  -0.005983   0.001707   0.003653
    17  H    0.001839  -0.005851   0.000269   0.000002   0.000001   0.000000
    18  H   -0.006016   0.001963  -0.005746   0.000001   0.000001   0.000000
    19  H    0.665128  -0.000025  -0.000017   0.000009   0.000217   0.000714
    20  H   -0.000025   0.647267  -0.023883   0.000291   0.000008  -0.000001
    21  H   -0.000017  -0.023883   0.638384  -0.000020  -0.000034   0.000000
    22  H    0.000009   0.000291  -0.000020   0.638994  -0.024539  -0.000024
    23  H    0.000217   0.000008  -0.000034  -0.024539   0.644852   0.000836
    24  H    0.000714  -0.000001   0.000000  -0.000024   0.000836   0.609395
    25  H   -0.000824   0.000000  -0.000002   0.000000   0.000000  -0.000006
    26  H    0.000002  -0.000001   0.000000   0.000001   0.000000  -0.000021
    27  H    0.000009   0.000008   0.000001   0.000000   0.000000  -0.000001
    28  H   -0.000030   0.000000   0.000000   0.000000   0.000000   0.000000
    29  H    0.000026   0.000000   0.000000   0.000000   0.000000  -0.000719
    30  H    0.000186   0.000000   0.000000   0.000000   0.000000  -0.000031
    31  H    0.000058   0.000000   0.000000   0.000000   0.000000   0.000008
             25         26         27         28         29         30
     1  C    0.000000   0.000000   0.000000   0.000000   0.000000   0.000000
     2  C    0.000000   0.000000   0.000000   0.000000   0.000000   0.000000
     3  C    0.001043  -0.000513  -0.000122   0.000028   0.000040   0.000027
     4  C   -0.004382   0.000035  -0.000536   0.000010  -0.000004   0.000027
     5  C   -0.023582  -0.001375  -0.001829   0.001131  -0.000925  -0.002868
     6  C    0.000035   0.000000  -0.000015   0.000000   0.000000   0.000000
     7  C   -0.000014   0.000005  -0.000002   0.000000   0.000000  -0.000001
     8  O   -0.000007   0.000119   0.000006   0.000000   0.000081   0.000008
     9  C    0.381863  -0.020152  -0.019846  -0.020021  -0.019780  -0.020390
    10  C   -0.024474   0.382916   0.381997   0.382376  -0.002726   0.001301
    11  C   -0.025833  -0.002570   0.001317  -0.002124   0.382672   0.381773
    12  H    0.000000   0.000000   0.000000   0.000000   0.000000   0.000000
    13  H    0.000000   0.000000   0.000000   0.000000   0.000000   0.000000
    14  H    0.000000   0.000000   0.000000   0.000000   0.000000   0.000000
    15  H    0.000000   0.000000   0.000000   0.000000   0.000000   0.000000
    16  H   -0.000005  -0.000709  -0.000068   0.000007   0.000001  -0.000001
    17  H   -0.000173   0.000022  -0.000178  -0.000028   0.000000   0.000001
    18  H    0.000158  -0.000002   0.000016   0.000000  -0.000001   0.000004
    19  H   -0.000824   0.000002   0.000009  -0.000030   0.000026   0.000186
    20  H    0.000000  -0.000001   0.000008   0.000000   0.000000   0.000000
    21  H   -0.000002   0.000000   0.000001   0.000000   0.000000   0.000000
    22  H    0.000000   0.000001   0.000000   0.000000   0.000000   0.000000
    23  H    0.000000   0.000000   0.000000   0.000000   0.000000   0.000000
    24  H   -0.000006  -0.000021  -0.000001   0.000000  -0.000719  -0.000031
    25  H    0.655228   0.001895  -0.001876  -0.002904   0.001938  -0.001696
    26  H    0.001895   0.621219  -0.021724  -0.021834   0.000361   0.000017
    27  H   -0.001876  -0.021724   0.633605  -0.021892   0.000020  -0.000037
    28  H   -0.002904  -0.021834  -0.021892   0.631375  -0.000021   0.000024
    29  H    0.001938   0.000361   0.000020  -0.000021   0.618915  -0.021667
    30  H   -0.001696   0.000017  -0.000037   0.000024  -0.021667   0.637691
    31  H   -0.003536  -0.000010   0.000016   0.000110  -0.022042  -0.021792
             31
     1  C    0.000000
     2  C    0.000000
     3  C   -0.000010
     4  C   -0.000016
     5  C    0.001166
     6  C    0.000000
     7  C    0.000000
     8  O    0.000014
     9  C   -0.020099
    10  C   -0.001748
    11  C    0.381814
    12  H    0.000000
    13  H    0.000000
    14  H    0.000000
    15  H    0.000000
    16  H    0.000000
    17  H   -0.000001
    18  H    0.000000
    19  H    0.000058
    20  H    0.000000
    21  H    0.000000
    22  H    0.000000
    23  H    0.000000
    24  H    0.000008
    25  H   -0.003536
    26  H   -0.000010
    27  H    0.000016
    28  H    0.000110
    29  H   -0.022042
    30  H   -0.021792
    31  H    0.633358
 Mulliken atomic charges:
              1
     1  C   -0.171143
     2  C   -0.024123
     3  C    0.075115
     4  C   -0.102256
     5  C   -0.041726
     6  C   -0.101736
     7  C   -0.113058
     8  O   -0.311709
     9  C   -0.016887
    10  C   -0.175870
    11  C   -0.176683
    12  H    0.053967
    13  H    0.053949
    14  H    0.054188
    15  H    0.045314
    16  H    0.059119
    17  H    0.050637
    18  H    0.047845
    19  H    0.038729
    20  H    0.047069
    21  H    0.051833
    22  H    0.054693
    23  H    0.047013
    24  H    0.177362
    25  H    0.047153
    26  H    0.062317
    27  H    0.051132
    28  H    0.053792
    29  H    0.063828
    30  H    0.047425
    31  H    0.052709
 Sum of Mulliken atomic charges =   0.00000
 Mulliken charges with hydrogens summed into heavy atoms:
              1
     1  C   -0.009039
     2  C    0.021191
     3  C    0.134234
     4  C   -0.003774
     5  C   -0.002997
     6  C   -0.002833
     7  C   -0.011353
     8  O   -0.134346
     9  C    0.030266
    10  C   -0.008629
    11  C   -0.012720
 Sum of Mulliken charges with hydrogens summed into heavy atoms =   0.00000
 Electronic spatial extent (au):  <R**2>=           2168.5957
 Charge=              0.0000 electrons
 Dipole moment (field-independent basis, Debye):
    X=             -0.6911    Y=             -0.7288    Z=             -1.0706  Tot=              1.4679
 Quadrupole moment (field-independent basis, Debye-Ang):
   XX=            -69.0024   YY=            -69.4268   ZZ=            -66.8102
   XY=             -1.5036   XZ=             -1.0327   YZ=             -2.9083
 Traceless Quadrupole moment (field-independent basis, Debye-Ang):
   XX=             -0.5892   YY=             -1.0137   ZZ=              1.6029
   XY=             -1.5036   XZ=             -1.0327   YZ=             -2.9083
 Octapole moment (field-independent basis, Debye-Ang**2):
  XXX=              7.9723  YYY=              7.9578  ZZZ=              2.0154  XYY=             -1.7044
  XXY=              0.8555  XXZ=             -0.1373  XZZ=             -0.6755  YZZ=              4.3245
  YYZ=             -7.3344  XYZ=             -2.4148
 Hexadecapole moment (field-independent basis, Debye-Ang**3):
 XXXX=          -1962.2448 YYYY=           -559.8682 ZZZZ=           -266.0123 XXXY=              3.9722
 XXXZ=              5.0174 YYYX=              5.7982 YYYZ=            -13.4856 ZZZX=             -2.1446
 ZZZY=              3.7679 XXYY=           -415.6585 XXZZ=           -373.0156 YYZZ=           -135.0639
 XXYZ=              3.1555 YYXZ=             -2.3738 ZZXY=              2.8547
 N-N= 6.923144071709D+02 E-N=-2.456584628761D+03  KE= 4.555582132670D+02
 ******************************Gaussian NBO Version 3.1******************************
             N A T U R A L   A T O M I C   O R B I T A L   A N D
          N A T U R A L   B O N D   O R B I T A L   A N A L Y S I S
 ******************************Gaussian NBO Version 3.1******************************
       /RESON  / : Allow strongly delocalized NBO set
       /NLMO   / : Form Natural Localized Molecular Orbitals
       /NMR /    : Analyze NMR Sheilding Tensor 

 Analyzing the SCF density

 Job title: comment                                                         

 Storage needed:     19864 in NPA,     23691 in NBO,     45933 in NLMO (  33549317 available)


 NATURAL POPULATIONS:  Natural atomic orbital occupancies 
                                                          
   NAO  Atom  No  lang   Type(AO)    Occupancy      Energy
 ----------------------------------------------------------
     1    C    1  S      Cor( 1S)     1.99997     -10.96673
     2    C    1  S      Val( 2S)     1.07958      -0.18289
     3    C    1  px     Val( 2p)     0.99097       0.08712
     4    C    1  py     Val( 2p)     1.02839       0.08243
     5    C    1  pz     Val( 2p)     1.02726       0.08278

     6    C    2  S      Cor( 1S)     1.99997     -10.99041
     7    C    2  S      Val( 2S)     1.07803      -0.19226
     8    C    2  px     Val( 2p)     0.95560       0.10773
     9    C    2  py     Val( 2p)     0.95898       0.10745
    10    C    2  pz     Val( 2p)     0.99362       0.09965

    11    C    3  S      Cor( 1S)     1.99990     -11.03480
    12    C    3  S      Val( 2S)     1.08789      -0.21679
    13    C    3  px     Val( 2p)     0.91304       0.10243
    14    C    3  py     Val( 2p)     0.85645       0.12103
    15    C    3  pz     Val( 2p)     1.00198       0.07736

    16    C    4  S      Cor( 1S)     1.99995     -10.97537
    17    C    4  S      Val( 2S)     1.08757      -0.19229
    18    C    4  px     Val( 2p)     0.97260       0.09953
    19    C    4  py     Val( 2p)     0.98577       0.09483
    20    C    4  pz     Val( 2p)     1.01756       0.09173

    21    C    5  S      Cor( 1S)     1.99996     -10.98797
    22    C    5  S      Val( 2S)     1.10394      -0.21320
    23    C    5  px     Val( 2p)     0.96269       0.10279
    24    C    5  py     Val( 2p)     0.96468       0.10180
    25    C    5  pz     Val( 2p)     0.98952       0.09787

    26    C    6  S      Cor( 1S)     1.99997     -10.97520
    27    C    6  S      Val( 2S)     1.08297      -0.18876
    28    C    6  px     Val( 2p)     0.98098       0.09581
    29    C    6  py     Val( 2p)     0.99071       0.09600
    30    C    6  pz     Val( 2p)     1.01052       0.09151

    31    C    7  S      Cor( 1S)     1.99996     -10.97472
    32    C    7  S      Val( 2S)     1.09606      -0.20037
    33    C    7  px     Val( 2p)     0.98510       0.08819
    34    C    7  py     Val( 2p)     0.99010       0.09275
    35    C    7  pz     Val( 2p)     1.01755       0.08762

    36    O    8  S      Cor( 1S)     1.99999     -20.14284
    37    O    8  S      Val( 2S)     1.74836      -0.99909
    38    O    8  px     Val( 2p)     1.78179      -0.29366
    39    O    8  py     Val( 2p)     1.43782      -0.14968
    40    O    8  pz     Val( 2p)     1.36413      -0.13293

    41    C    9  S      Cor( 1S)     1.99996     -10.99042
    42    C    9  S      Val( 2S)     1.08452      -0.19441
    43    C    9  px     Val( 2p)     0.94577       0.11548
    44    C    9  py     Val( 2p)     0.98472       0.10392
    45    C    9  pz     Val( 2p)     0.96068       0.11258

    46    C   10  S      Cor( 1S)     1.99997     -10.96042
    47    C   10  S      Val( 2S)     1.07979      -0.17746
    48    C   10  px     Val( 2p)     1.02458       0.08756
    49    C   10  py     Val( 2p)     1.03250       0.08732
    50    C   10  pz     Val( 2p)     0.99540       0.09285

    51    C   11  S      Cor( 1S)     1.99997     -10.95999
    52    C   11  S      Val( 2S)     1.08183      -0.17887
    53    C   11  px     Val( 2p)     1.01607       0.08754
    54    C   11  py     Val( 2p)     1.02001       0.08849
    55    C   11  pz     Val( 2p)     1.01493       0.09057

    56    H   12  S      Val( 1S)     0.96335       0.07334

    57    H   13  S      Val( 1S)     0.96341       0.07328

    58    H   14  S      Val( 1S)     0.96311       0.07284

    59    H   15  S      Val( 1S)     0.97847       0.06191

    60    H   16  S      Val( 1S)     0.97606       0.05800

    61    H   17  S      Val( 1S)     0.97091       0.07214

    62    H   18  S      Val( 1S)     0.97325       0.06870

    63    H   19  S      Val( 1S)     0.98582       0.05591

    64    H   20  S      Val( 1S)     0.97344       0.06769

    65    H   21  S      Val( 1S)     0.96858       0.06993

    66    H   22  S      Val( 1S)     0.96642       0.07221

    67    H   23  S      Val( 1S)     0.97288       0.06288

    68    H   24  S      Val( 1S)     0.81026       0.07552

    69    H   25  S      Val( 1S)     0.97814       0.06621

    70    H   26  S      Val( 1S)     0.95587       0.08736

    71    H   27  S      Val( 1S)     0.96597       0.07802

    72    H   28  S      Val( 1S)     0.96312       0.07798

    73    H   29  S      Val( 1S)     0.95486       0.08863

    74    H   30  S      Val( 1S)     0.96927       0.07271

    75    H   31  S      Val( 1S)     0.96423       0.07723


 Summary of Natural Population Analysis:                  
                                                          
                                       Natural Population 
                Natural  -----------------------------------------------
    Atom  No    Charge         Core      Valence    Rydberg      Total
 -----------------------------------------------------------------------
      C    1   -0.12618      1.99997     4.12620    0.00000     6.12618
      C    2    0.01380      1.99997     3.98623    0.00000     5.98620
      C    3    0.14074      1.99990     3.85937    0.00000     5.85926
      C    4   -0.06345      1.99995     4.06350    0.00000     6.06345
      C    5   -0.02079      1.99996     4.02083    0.00000     6.02079
      C    6   -0.06515      1.99997     4.06519    0.00000     6.06515
      C    7   -0.08878      1.99996     4.08882    0.00000     6.08878
      O    8   -0.33209      1.99999     6.33210    0.00000     8.33209
      C    9    0.02434      1.99996     3.97570    0.00000     5.97566
      C   10   -0.13223      1.99997     4.13227    0.00000     6.13223
      C   11   -0.13281      1.99997     4.13284    0.00000     6.13281
      H   12    0.03665      0.00000     0.96335    0.00000     0.96335
      H   13    0.03659      0.00000     0.96341    0.00000     0.96341
      H   14    0.03689      0.00000     0.96311    0.00000     0.96311
      H   15    0.02153      0.00000     0.97847    0.00000     0.97847
      H   16    0.02394      0.00000     0.97606    0.00000     0.97606
      H   17    0.02909      0.00000     0.97091    0.00000     0.97091
      H   18    0.02675      0.00000     0.97325    0.00000     0.97325
      H   19    0.01418      0.00000     0.98582    0.00000     0.98582
      H   20    0.02656      0.00000     0.97344    0.00000     0.97344
      H   21    0.03142      0.00000     0.96858    0.00000     0.96858
      H   22    0.03358      0.00000     0.96642    0.00000     0.96642
      H   23    0.02712      0.00000     0.97288    0.00000     0.97288
      H   24    0.18974      0.00000     0.81026    0.00000     0.81026
      H   25    0.02186      0.00000     0.97814    0.00000     0.97814
      H   26    0.04413      0.00000     0.95587    0.00000     0.95587
      H   27    0.03403      0.00000     0.96597    0.00000     0.96597
      H   28    0.03688      0.00000     0.96312    0.00000     0.96312
      H   29    0.04514      0.00000     0.95486    0.00000     0.95486
      H   30    0.03073      0.00000     0.96927    0.00000     0.96927
      H   31    0.03577      0.00000     0.96423    0.00000     0.96423
 =======================================================================
   * Total *    0.00000     21.99956    66.00044    0.00000    88.00000

                                 Natural Population      
 --------------------------------------------------------
   Core                      21.99956 ( 99.9980% of  22)
   Valence                   66.00044 (100.0007% of  66)
   Natural Minimal Basis     88.00000 (100.0000% of  88)
   Natural Rydberg Basis      0.00000 (  0.0000% of  88)
 --------------------------------------------------------

    Atom  No          Natural Electron Configuration
 ----------------------------------------------------------------------------
      C    1      [core]2S( 1.08)2p( 3.05)
      C    2      [core]2S( 1.08)2p( 2.91)
      C    3      [core]2S( 1.09)2p( 2.77)
      C    4      [core]2S( 1.09)2p( 2.98)
      C    5      [core]2S( 1.10)2p( 2.92)
      C    6      [core]2S( 1.08)2p( 2.98)
      C    7      [core]2S( 1.10)2p( 2.99)
      O    8      [core]2S( 1.75)2p( 4.58)
      C    9      [core]2S( 1.08)2p( 2.89)
      C   10      [core]2S( 1.08)2p( 3.05)
      C   11      [core]2S( 1.08)2p( 3.05)
      H   12            1S( 0.96)
      H   13            1S( 0.96)
      H   14            1S( 0.96)
      H   15            1S( 0.98)
      H   16            1S( 0.98)
      H   17            1S( 0.97)
      H   18            1S( 0.97)
      H   19            1S( 0.99)
      H   20            1S( 0.97)
      H   21            1S( 0.97)
      H   22            1S( 0.97)
      H   23            1S( 0.97)
      H   24            1S( 0.81)
      H   25            1S( 0.98)
      H   26            1S( 0.96)
      H   27            1S( 0.97)
      H   28            1S( 0.96)
      H   29            1S( 0.95)
      H   30            1S( 0.97)
      H   31            1S( 0.96)


 NATURAL BOND ORBITAL ANALYSIS:

                       Occupancies       Lewis Structure    Low   High
           Occ.    -------------------  -----------------   occ   occ
  Cycle   Thresh.   Lewis   Non-Lewis     CR  BD  3C  LP    (L)   (NL)   Dev
 =============================================================================
   1(1)    1.90    87.64092   0.35908     11  31   0   2     0      0    0.02
 -----------------------------------------------------------------------------

 Structure accepted: No low occupancy Lewis orbitals

 --------------------------------------------------------
   Core                     21.99956 ( 99.998% of  22)
   Valence Lewis            65.64136 ( 99.457% of  66)
  ==================       ============================
   Total Lewis              87.64092 ( 99.592% of  88)
  -----------------------------------------------------
   Valence non-Lewis         0.35908 (  0.408% of  88)
   Rydberg non-Lewis         0.00000 (  0.000% of  88)
  ==================       ============================
   Total non-Lewis           0.35908 (  0.408% of  88)
 --------------------------------------------------------


       (Occupancy)   Bond orbital/ Coefficients/ Hybrids
 ---------------------------------------------------------------------------------
     1. (1.98927) BD ( 1) C   1 - C   2  
                ( 50.77%)   0.7125* C   1 s( 25.73%)p 2.89( 74.27%)
                                            0.0001  0.5073  0.8406 -0.0979 -0.1627
                ( 49.23%)   0.7017* C   2 s( 25.30%)p 2.95( 74.70%)
                                            0.0000  0.5030 -0.8371  0.0991  0.1909
     2. (1.99495) BD ( 1) C   1 - H  12  
                ( 51.84%)   0.7200* C   1 s( 24.70%)p 3.05( 75.30%)
                                            0.0000  0.4970 -0.4450 -0.6549 -0.3552
                ( 48.16%)   0.6939* H  12 s(100.00%)
                                            1.0000
     3. (1.99527) BD ( 1) C   1 - H  13  
                ( 51.87%)   0.7202* C   1 s( 24.82%)p 3.03( 75.18%)
                                            0.0000  0.4982 -0.1343  0.0048  0.8566
                ( 48.13%)   0.6938* H  13 s(100.00%)
                                            1.0000
     4. (1.99502) BD ( 1) C   1 - H  14  
                ( 51.85%)   0.7201* C   1 s( 24.74%)p 3.04( 75.26%)
                                            0.0000  0.4974 -0.2782  0.7494 -0.3371
                ( 48.15%)   0.6939* H  14 s(100.00%)
                                            1.0000
     5. (1.98595) BD ( 1) C   2 - C   6  
                ( 49.66%)   0.7047* C   2 s( 25.18%)p 2.97( 74.82%)
                                            0.0000  0.5018  0.2902 -0.7425  0.3358
                ( 50.34%)   0.7095* C   6 s( 25.41%)p 2.94( 74.59%)
                                            0.0001  0.5041 -0.2948  0.7432 -0.3266
     6. (1.98422) BD ( 1) C   2 - C   7  
                ( 49.46%)   0.7033* C   2 s( 25.06%)p 2.99( 74.94%)
                                            0.0000  0.5006  0.4532  0.6623  0.3247
                ( 50.54%)   0.7109* C   7 s( 25.65%)p 2.90( 74.35%)
                                            0.0001  0.5065 -0.4373 -0.6829 -0.2930
     7. (1.98540) BD ( 1) C   2 - H  15  
                ( 51.01%)   0.7142* C   2 s( 24.47%)p 3.09( 75.53%)
                                            0.0000  0.4946  0.0982 -0.0178 -0.8634
                ( 48.99%)   0.6999* H  15 s(100.00%)
                                            1.0000
     8. (1.98434) BD ( 1) C   3 - C   5  
                ( 49.89%)   0.7063* C   3 s( 25.76%)p 2.88( 74.24%)
                                            0.0001  0.5075  0.3143 -0.6157 -0.5144
                ( 50.11%)   0.7079* C   5 s( 25.41%)p 2.94( 74.59%)
                                            0.0000  0.5041 -0.2698  0.6247  0.5318
     9. (1.98646) BD ( 1) C   3 - C   7  
                ( 49.35%)   0.7025* C   3 s( 25.48%)p 2.92( 74.52%)
                                            0.0000  0.5048 -0.8208  0.1697 -0.2065
                ( 50.65%)   0.7117* C   7 s( 25.36%)p 2.94( 74.64%)
                                            0.0000  0.5036  0.8219 -0.2182  0.1524
    10. (1.98772) BD ( 1) C   3 - O   8  
                ( 41.09%)   0.6410* C   3 s( 22.64%)p 3.42( 77.36%)
                                            0.0000  0.4758  0.4734  0.7319 -0.1174
                ( 58.91%)   0.7675* O   8 s( 16.67%)p 5.00( 83.33%)
                                            0.0000  0.4083 -0.4935 -0.7679  0.0124
    11. (1.98697) BD ( 1) C   3 - H  16  
                ( 51.33%)   0.7165* C   3 s( 26.12%)p 2.83( 73.88%)
                                            0.0000  0.5111  0.0579 -0.2376  0.8240
                ( 48.67%)   0.6976* H  16 s(100.00%)
                                            1.0000
    12. (1.98307) BD ( 1) C   4 - C   5  
                ( 50.43%)   0.7101* C   4 s( 25.55%)p 2.91( 74.45%)
                                            0.0001  0.5054  0.4467  0.7333 -0.0854
                ( 49.57%)   0.7041* C   5 s( 24.71%)p 3.05( 75.29%)
                                            0.0000  0.4971 -0.4593 -0.7220  0.1439
    13. (1.98935) BD ( 1) C   4 - C   6  
                ( 50.00%)   0.7071* C   4 s( 25.46%)p 2.93( 74.54%)
                                            0.0000  0.5046 -0.8162  0.1750  0.2203
                ( 50.00%)   0.7071* C   6 s( 25.12%)p 2.98( 74.88%)
                                            0.0000  0.5012  0.8241 -0.1169 -0.2365
    14. (1.99050) BD ( 1) C   4 - H  17  
                ( 51.47%)   0.7174* C   4 s( 24.73%)p 3.04( 75.27%)
                                            0.0000  0.4973  0.3664 -0.4947  0.6113
                ( 48.53%)   0.6967* H  17 s(100.00%)
                                            1.0000
    15. (1.99164) BD ( 1) C   4 - H  18  
                ( 51.32%)   0.7164* C   4 s( 24.26%)p 3.12( 75.74%)
                                            0.0000  0.4925  0.0079 -0.4323 -0.7553
                ( 48.68%)   0.6977* H  18 s(100.00%)
                                            1.0000
    16. (1.97900) BD ( 1) C   5 - C   9  
                ( 50.37%)   0.7097* C   5 s( 25.77%)p 2.88( 74.23%)
                                            0.0001  0.5076  0.8372 -0.1575  0.1287
                ( 49.63%)   0.7045* C   9 s( 25.36%)p 2.94( 74.64%)
                                            0.0001  0.5036 -0.8367  0.2103 -0.0462
    17. (1.98444) BD ( 1) C   5 - H  19  
                ( 50.63%)   0.7116* C   5 s( 24.11%)p 3.15( 75.89%)
                                            0.0000  0.4910 -0.1235  0.2523 -0.8246
                ( 49.37%)   0.7026* H  19 s(100.00%)
                                            1.0000
    18. (1.99138) BD ( 1) C   6 - H  20  
                ( 51.36%)   0.7166* C   6 s( 24.42%)p 3.10( 75.58%)
                                            0.0000  0.4941 -0.0476  0.0272  0.8676
                ( 48.64%)   0.6975* H  20 s(100.00%)
                                            1.0000
    19. (1.99015) BD ( 1) C   6 - H  21  
                ( 51.55%)   0.7180* C   6 s( 25.06%)p 2.99( 74.94%)
                                            0.0000  0.5006 -0.4813 -0.6582 -0.2908
                ( 48.45%)   0.6961* H  21 s(100.00%)
                                            1.0000
    20. (1.99110) BD ( 1) C   7 - H  22  
                ( 51.69%)   0.7189* C   7 s( 24.47%)p 3.09( 75.53%)
                                            0.0000  0.4947 -0.3641  0.2841  0.7362
                ( 48.31%)   0.6951* H  22 s(100.00%)
                                            1.0000
    21. (1.98908) BD ( 1) C   7 - H  23  
                ( 51.31%)   0.7163* C   7 s( 24.52%)p 3.08( 75.48%)
                                            0.0000  0.4952 -0.0249  0.6366 -0.5907
                ( 48.69%)   0.6978* H  23 s(100.00%)
                                            1.0000
    22. (1.98903) BD ( 1) O   8 - H  24  
                ( 59.53%)   0.7716* O   8 s( 16.78%)p 4.96( 83.22%)
                                            0.0000 -0.4096  0.0450 -0.2325  0.8810
                ( 40.47%)   0.6362* H  24 s(100.00%)
                                           -1.0000
    23. (1.98990) BD ( 1) C   9 - C  10  
                ( 49.18%)   0.7013* C   9 s( 25.33%)p 2.95( 74.67%)
                                            0.0000  0.5032  0.2433 -0.0553  0.8273
                ( 50.82%)   0.7128* C  10 s( 25.79%)p 2.88( 74.21%)
                                            0.0001  0.5078 -0.2777  0.0799 -0.8115
    24. (1.98968) BD ( 1) C   9 - C  11  
                ( 49.07%)   0.7005* C   9 s( 25.07%)p 2.99( 74.93%)
                                            0.0000  0.5007  0.4746  0.6007 -0.4040
                ( 50.93%)   0.7136* C  11 s( 25.85%)p 2.87( 74.15%)
                                            0.0001  0.5084 -0.5074 -0.5548  0.4199
    25. (1.98392) BD ( 1) C   9 - H  25  
                ( 50.97%)   0.7140* C   9 s( 24.25%)p 3.12( 75.75%)
                                            0.0000  0.4924  0.1244 -0.7693 -0.3876
                ( 49.03%)   0.7002* H  25 s(100.00%)
                                            1.0000
    26. (1.99529) BD ( 1) C  10 - H  26  
                ( 52.25%)   0.7229* C  10 s( 24.88%)p 3.02( 75.12%)
                                            0.0000  0.4988 -0.0483  0.7653  0.4040
                ( 47.75%)   0.6910* H  26 s(100.00%)
                                            1.0000
    27. (1.99424) BD ( 1) C  10 - H  27  
                ( 51.72%)   0.7192* C  10 s( 24.77%)p 3.04( 75.23%)
                                            0.0000  0.4977 -0.4898 -0.5781  0.4221
                ( 48.28%)   0.6948* H  27 s(100.00%)
                                            1.0000
    28. (1.99440) BD ( 1) C  10 - H  28  
                ( 51.83%)   0.7199* C  10 s( 24.56%)p 3.07( 75.44%)
                                            0.0000  0.4956  0.8250 -0.2715  0.0011
                ( 48.17%)   0.6940* H  28 s(100.00%)
                                            1.0000
    29. (1.99568) BD ( 1) C  11 - H  29  
                ( 52.35%)   0.7235* C  11 s( 25.04%)p 2.99( 74.96%)
                                            0.0000  0.5004 -0.0024  0.7660  0.4035
                ( 47.65%)   0.6903* H  29 s(100.00%)
                                            1.0000
    30. (1.99480) BD ( 1) C  11 - H  30  
                ( 51.55%)   0.7180* C  11 s( 24.69%)p 3.05( 75.31%)
                                            0.0000  0.4969 -0.2867  0.1025 -0.8126
                ( 48.45%)   0.6960* H  30 s(100.00%)
                                            1.0000
    31. (1.99474) BD ( 1) C  11 - H  31  
                ( 51.79%)   0.7196* C  11 s( 24.43%)p 3.09( 75.57%)
                                            0.0000  0.4942  0.8126 -0.3079 -0.0234
                ( 48.21%)   0.6944* H  31 s(100.00%)
                                            1.0000
    32. (1.99997) CR ( 1) C   1           s(100.00%)
                                            1.0000  0.0000 -0.0001  0.0000  0.0000
    33. (1.99997) CR ( 1) C   2           s(100.00%)
                                            1.0000  0.0000  0.0000  0.0000  0.0000
    34. (1.99990) CR ( 1) C   3           s(100.00%)
                                            1.0000  0.0000  0.0000  0.0001  0.0001
    35. (1.99995) CR ( 1) C   4           s(100.00%)
                                            1.0000 -0.0001  0.0000 -0.0001  0.0000
    36. (1.99995) CR ( 1) C   5           s(100.00%)
                                            1.0000  0.0000  0.0000  0.0000  0.0000
    37. (1.99996) CR ( 1) C   6           s(100.00%)
                                            1.0000  0.0000  0.0000 -0.0001  0.0000
    38. (1.99996) CR ( 1) C   7           s(100.00%)
                                            1.0000  0.0000  0.0000  0.0001  0.0000
    39. (1.99999) CR ( 1) O   8           s(100.00%)
                                            1.0000  0.0000  0.0000  0.0000  0.0000
    40. (1.99996) CR ( 1) C   9           s(100.00%)
                                            1.0000  0.0000  0.0001  0.0000  0.0000
    41. (1.99997) CR ( 1) C  10           s(100.00%)
                                            1.0000  0.0000  0.0001  0.0000  0.0001
    42. (1.99997) CR ( 1) C  11           s(100.00%)
                                            1.0000  0.0000  0.0001  0.0000  0.0000
    43. (1.99315) LP ( 1) O   8           s( 66.54%)p 0.50( 33.46%)
                                            0.0000  0.8157  0.2823  0.2593  0.4333
    44. (1.97126) LP ( 2) O   8           s(  0.02%)p99.99( 99.98%)
                                            0.0000  0.0126 -0.8214  0.5377  0.1897
    45. (0.00985) BD*( 1) C   1 - C   2  
                ( 49.23%)   0.7017* C   1 s( 25.73%)p 2.89( 74.27%)
                                           -0.0001 -0.5073 -0.8406  0.0979  0.1627
                ( 50.77%)  -0.7125* C   2 s( 25.30%)p 2.95( 74.70%)
                                            0.0000 -0.5030  0.8371 -0.0991 -0.1909
    46. (0.00517) BD*( 1) C   1 - H  12  
                ( 48.16%)   0.6939* C   1 s( 24.70%)p 3.05( 75.30%)
                                            0.0000 -0.4970  0.4450  0.6549  0.3552
                ( 51.84%)  -0.7200* H  12 s(100.00%)
                                           -1.0000
    47. (0.00589) BD*( 1) C   1 - H  13  
                ( 48.13%)   0.6938* C   1 s( 24.82%)p 3.03( 75.18%)
                                            0.0000 -0.4982  0.1343 -0.0048 -0.8566
                ( 51.87%)  -0.7202* H  13 s(100.00%)
                                           -1.0000
    48. (0.00501) BD*( 1) C   1 - H  14  
                ( 48.15%)   0.6939* C   1 s( 24.74%)p 3.04( 75.26%)
                                            0.0000 -0.4974  0.2782 -0.7494  0.3371
                ( 51.85%)  -0.7201* H  14 s(100.00%)
                                           -1.0000
    49. (0.01544) BD*( 1) C   2 - C   6  
                ( 50.34%)   0.7095* C   2 s( 25.18%)p 2.97( 74.82%)
                                            0.0000  0.5018  0.2902 -0.7425  0.3358
                ( 49.66%)  -0.7047* C   6 s( 25.41%)p 2.94( 74.59%)
                                            0.0001  0.5041 -0.2948  0.7432 -0.3266
    50. (0.01599) BD*( 1) C   2 - C   7  
                ( 50.54%)   0.7109* C   2 s( 25.06%)p 2.99( 74.94%)
                                            0.0000  0.5006  0.4532  0.6623  0.3247
                ( 49.46%)  -0.7033* C   7 s( 25.65%)p 2.90( 74.35%)
                                            0.0001  0.5065 -0.4373 -0.6829 -0.2930
    51. (0.01147) BD*( 1) C   2 - H  15  
                ( 48.99%)   0.6999* C   2 s( 24.47%)p 3.09( 75.53%)
                                            0.0000 -0.4946 -0.0982  0.0178  0.8634
                ( 51.01%)  -0.7142* H  15 s(100.00%)
                                           -1.0000
    52. (0.03373) BD*( 1) C   3 - C   5  
                ( 50.11%)   0.7079* C   3 s( 25.76%)p 2.88( 74.24%)
                                            0.0001  0.5075  0.3143 -0.6157 -0.5144
                ( 49.89%)  -0.7063* C   5 s( 25.41%)p 2.94( 74.59%)
                                            0.0000  0.5041 -0.2698  0.6247  0.5318
    53. (0.02792) BD*( 1) C   3 - C   7  
                ( 50.65%)   0.7117* C   3 s( 25.48%)p 2.92( 74.52%)
                                            0.0000  0.5048 -0.8208  0.1697 -0.2065
                ( 49.35%)  -0.7025* C   7 s( 25.36%)p 2.94( 74.64%)
                                            0.0000  0.5036  0.8219 -0.2182  0.1524
    54. (0.02185) BD*( 1) C   3 - O   8  
                ( 58.91%)   0.7675* C   3 s( 22.64%)p 3.42( 77.36%)
                                            0.0000  0.4758  0.4734  0.7319 -0.1174
                ( 41.09%)  -0.6410* O   8 s( 16.67%)p 5.00( 83.33%)
                                            0.0000  0.4083 -0.4935 -0.7679  0.0124
    55. (0.01757) BD*( 1) C   3 - H  16  
                ( 48.67%)   0.6976* C   3 s( 26.12%)p 2.83( 73.88%)
                                            0.0000 -0.5111 -0.0579  0.2376 -0.8240
                ( 51.33%)  -0.7165* H  16 s(100.00%)
                                           -1.0000
    56. (0.01603) BD*( 1) C   4 - C   5  
                ( 49.57%)   0.7041* C   4 s( 25.55%)p 2.91( 74.45%)
                                           -0.0001 -0.5054 -0.4467 -0.7333  0.0854
                ( 50.43%)  -0.7101* C   5 s( 24.71%)p 3.05( 75.29%)
                                            0.0000 -0.4971  0.4593  0.7220 -0.1439
    57. (0.01208) BD*( 1) C   4 - C   6  
                ( 50.00%)   0.7071* C   4 s( 25.46%)p 2.93( 74.54%)
                                            0.0000 -0.5046  0.8162 -0.1750 -0.2203
                ( 50.00%)  -0.7071* C   6 s( 25.12%)p 2.98( 74.88%)
                                            0.0000 -0.5012 -0.8241  0.1169  0.2365
    58. (0.00944) BD*( 1) C   4 - H  17  
                ( 48.53%)   0.6967* C   4 s( 24.73%)p 3.04( 75.27%)
                                            0.0000 -0.4973 -0.3664  0.4947 -0.6113
                ( 51.47%)  -0.7174* H  17 s(100.00%)
                                           -1.0000
    59. (0.00737) BD*( 1) C   4 - H  18  
                ( 48.68%)   0.6977* C   4 s( 24.26%)p 3.12( 75.74%)
                                            0.0000 -0.4925 -0.0079  0.4323  0.7553
                ( 51.32%)  -0.7164* H  18 s(100.00%)
                                           -1.0000
    60. (0.02209) BD*( 1) C   5 - C   9  
                ( 49.63%)   0.7045* C   5 s( 25.77%)p 2.88( 74.23%)
                                           -0.0001 -0.5076 -0.8372  0.1575 -0.1287
                ( 50.37%)  -0.7097* C   9 s( 25.36%)p 2.94( 74.64%)
                                           -0.0001 -0.5036  0.8367 -0.2103  0.0462
    61. (0.01217) BD*( 1) C   5 - H  19  
                ( 49.37%)   0.7026* C   5 s( 24.11%)p 3.15( 75.89%)
                                            0.0000 -0.4910  0.1235 -0.2523  0.8246
                ( 50.63%)  -0.7116* H  19 s(100.00%)
                                           -1.0000
    62. (0.00926) BD*( 1) C   6 - H  20  
                ( 48.64%)   0.6975* C   6 s( 24.42%)p 3.10( 75.58%)
                                            0.0000 -0.4941  0.0476 -0.0272 -0.8676
                ( 51.36%)  -0.7166* H  20 s(100.00%)
                                           -1.0000
    63. (0.00833) BD*( 1) C   6 - H  21  
                ( 48.45%)   0.6961* C   6 s( 25.06%)p 2.99( 74.94%)
                                            0.0000 -0.5006  0.4813  0.6582  0.2908
                ( 51.55%)  -0.7180* H  21 s(100.00%)
                                           -1.0000
    64. (0.00856) BD*( 1) C   7 - H  22  
                ( 48.31%)   0.6951* C   7 s( 24.47%)p 3.09( 75.53%)
                                            0.0000 -0.4947  0.3641 -0.2841 -0.7362
                ( 51.69%)  -0.7189* H  22 s(100.00%)
                                           -1.0000
    65. (0.00869) BD*( 1) C   7 - H  23  
                ( 48.69%)   0.6978* C   7 s( 24.52%)p 3.08( 75.48%)
                                            0.0000 -0.4952  0.0249 -0.6366  0.5907
                ( 51.31%)  -0.7163* H  23 s(100.00%)
                                           -1.0000
    66. (0.00893) BD*( 1) O   8 - H  24  
                ( 40.47%)   0.6362* O   8 s( 16.78%)p 4.96( 83.22%)
                                            0.0000  0.4096 -0.0450  0.2325 -0.8810
                ( 59.53%)  -0.7716* H  24 s(100.00%)
                                            1.0000
    67. (0.01043) BD*( 1) C   9 - C  10  
                ( 50.82%)   0.7128* C   9 s( 25.33%)p 2.95( 74.67%)
                                            0.0000  0.5032  0.2433 -0.0553  0.8273
                ( 49.18%)  -0.7013* C  10 s( 25.79%)p 2.88( 74.21%)
                                            0.0001  0.5078 -0.2777  0.0799 -0.8115
    68. (0.01035) BD*( 1) C   9 - C  11  
                ( 50.93%)   0.7136* C   9 s( 25.07%)p 2.99( 74.93%)
                                            0.0000  0.5007  0.4746  0.6007 -0.4040
                ( 49.07%)  -0.7005* C  11 s( 25.85%)p 2.87( 74.15%)
                                            0.0001  0.5084 -0.5074 -0.5548  0.4199
    69. (0.01083) BD*( 1) C   9 - H  25  
                ( 49.03%)   0.7002* C   9 s( 24.25%)p 3.12( 75.75%)
                                            0.0000 -0.4924 -0.1244  0.7693  0.3876
                ( 50.97%)  -0.7140* H  25 s(100.00%)
                                           -1.0000
    70. (0.00610) BD*( 1) C  10 - H  26  
                ( 47.75%)   0.6910* C  10 s( 24.88%)p 3.02( 75.12%)
                                            0.0000 -0.4988  0.0483 -0.7653 -0.4040
                ( 52.25%)  -0.7229* H  26 s(100.00%)
                                           -1.0000
    71. (0.00615) BD*( 1) C  10 - H  27  
                ( 48.28%)   0.6948* C  10 s( 24.77%)p 3.04( 75.23%)
                                            0.0000 -0.4977  0.4898  0.5781 -0.4221
                ( 51.72%)  -0.7192* H  27 s(100.00%)
                                           -1.0000
    72. (0.00475) BD*( 1) C  10 - H  28  
                ( 48.17%)   0.6940* C  10 s( 24.56%)p 3.07( 75.44%)
                                            0.0000 -0.4956 -0.8250  0.2715 -0.0011
[...]
   39     271.1813       -0.0060     271.1873        -0.0026     271.1839
   43      33.0023        1.5676      31.4347        -4.4059      37.4083
   44       2.7735      -35.7212      38.4946       -37.0725      39.8459
 Sum      347.9478      -25.0992     373.0470       -29.3008     377.2486

 Contributions to Isotropic shielding for atom    9 (   212.7950 ppm):
                         Standard Origin              Atomic Origin
 NLMO      Total    Paramagnetic  Diamagnetic   Paramagnetic  Diamagnetic
   10      -0.0239       -0.2521       0.2282        -1.1615       1.1376
   14      -0.2086       -0.6382       0.4296        -1.1784       0.9699
   16       5.6866       -9.5583      15.2448        -1.9128       7.5994
   23      -0.8592       -6.2560       5.3968        -8.4720       7.6128
   24      -1.7747       -5.1851       3.4105        -9.3016       7.5269
   25       5.2206       -1.1010       6.3216        -5.6195      10.8401
   26       0.8926       -0.3359       1.2285        -0.1463       1.0389
   27       0.6557       -0.5522       1.2079        -0.3626       1.0183
   28       0.5959       -0.2352       0.8311        -0.4443       1.0402
   29       0.9554       -0.3444       1.2998        -0.0701       1.0255
   30       0.7053       -0.6194       1.3247        -0.3208       1.0260
   31       0.6259       -0.3082       0.9341        -0.4093       1.0353
   40     199.9255       -0.0022     199.9277         0.0027     199.9228
 Sum      212.3971      -25.3882     237.7853       -29.3965     241.7936

 Contributions to Isotropic shielding for atom   10 (   224.2604 ppm):
                         Standard Origin              Atomic Origin
 NLMO      Total    Paramagnetic  Diamagnetic   Paramagnetic  Diamagnetic
   10       0.0381       -0.1096       0.1477        -1.0403       1.0784
   23       4.3688       -9.3049      13.6737        -3.5202       7.8890
   24      -0.4254        0.0302      -0.4556        -1.1039       0.6785
   26       6.6271       -4.8090      11.4361        -4.6558      11.2829
   27       6.8967       -4.6695      11.5662        -4.1799      11.0766
   28       5.8610        3.7499       2.1111        -5.2337      11.0947
   41     200.0730       -0.0027     200.0758         0.0017     200.0713
 Sum      223.4393      -15.1157     238.5550       -19.7321     243.1714

 Contributions to Isotropic shielding for atom   11 (   220.4109 ppm):
                         Standard Origin              Atomic Origin
 NLMO      Total    Paramagnetic  Diamagnetic   Paramagnetic  Diamagnetic
   17      -0.2581       -0.1130      -0.1451        -1.1961       0.9380
   23      -0.4855        0.0175      -0.5030        -1.1835       0.6979
   24       4.0865      -11.2210      15.3075        -3.8727       7.9592
   25       0.2782        0.1567       0.1215        -0.7805       1.0587
   29       6.0230       -4.8617      10.8846        -5.3073      11.3303
   30       5.6396       -4.5643      10.2039        -5.3678      11.0075
   31       4.7756        2.8679       1.9077        -6.2970      11.0726
   42     200.0769       -0.0035     200.0804         0.0020     200.0749
 Sum      220.1362      -17.7215     237.8577       -24.0029     244.1391

 Contributions to Isotropic shielding for atom   12 (    32.5184 ppm):
                         Standard Origin              Atomic Origin
 NLMO      Total    Paramagnetic  Diamagnetic   Paramagnetic  Diamagnetic
    1       1.4286       -0.5668       1.9954         0.4386       0.9901
    2      26.3656        0.1459      26.2197         0.4549      25.9106
    3       1.8936        1.7170       0.1767         0.0506       1.8430
    4       1.9408        2.2462      -0.3054         0.0988       1.8420
    5      -0.1541        0.8018      -0.9559        -1.0257       0.8716
 Sum       31.4745        4.3440      27.1305         0.0172      31.4573

 Contributions to Isotropic shielding for atom   13 (    32.6806 ppm):
                         Standard Origin              Atomic Origin
 NLMO      Total    Paramagnetic  Diamagnetic   Paramagnetic  Diamagnetic
    1       1.6611       -1.2590       2.9201         0.7859       0.8752
    2       1.9145        1.9341      -0.0196         0.0861       1.8284
    3      26.3331        0.2786      26.0545         0.4423      25.8908
    4       1.9759        1.7045       0.2714         0.1510       1.8248
 Sum       31.8845        2.6581      29.2264         1.4653      30.4192

 Contributions to Isotropic shielding for atom   14 (    32.4142 ppm):
                         Standard Origin              Atomic Origin
 NLMO      Total    Paramagnetic  Diamagnetic   Paramagnetic  Diamagnetic
    1       1.4724       -0.8297       2.3021         0.4831       0.9893
    2       1.8598        2.2516      -0.3918         0.0254       1.8344
    3       1.9254        1.5258       0.3996         0.0894       1.8360
    4      26.3234        0.1714      26.1520         0.4185      25.9049
    6      -0.1199        0.6955      -0.8155        -1.0342       0.9142
 Sum       31.4611        3.8146      27.6465        -0.0178      31.4789

 Contributions to Isotropic shielding for atom   15 (    32.7477 ppm):
                         Standard Origin              Atomic Origin
 NLMO      Total    Paramagnetic  Diamagnetic   Paramagnetic  Diamagnetic
    1       0.7921        2.1710      -1.3789        -0.1870       0.9791
    2       0.2631       -0.9733       1.2365        -0.7071       0.9703
    4       0.2592       -0.9856       1.2448        -0.7012       0.9604
    5       1.4401        0.3395       1.1006         0.5650       0.8751
    6       1.5956        0.0629       1.5326         0.7043       0.8913
    7      26.4717        0.0270      26.4448         0.3584      26.1133
   21      -0.0404       -0.2683       0.2278        -1.1560       1.1156
 Sum       30.7814        0.3733      30.4082        -1.1236      31.9050

 Contributions to Isotropic shielding for atom   16 (    31.5086 ppm):
                         Standard Origin              Atomic Origin
 NLMO      Total    Paramagnetic  Diamagnetic   Paramagnetic  Diamagnetic
    8       0.9814       -0.0359       1.0173         0.0447       0.9366
   10       0.9887        0.6204       0.3683        -1.0469       2.0356
   11      26.2677        0.4244      25.8433         0.6888      25.5788
   20      -0.0303       -0.8485       0.8182        -1.1669       1.1365
   26      -0.2028       -1.2090       1.0063        -1.0130       0.8102
 Sum       28.0047       -1.0486      29.0533        -2.4932      30.4978

 Contributions to Isotropic shielding for atom   17 (    32.4714 ppm):
                         Standard Origin              Atomic Origin
 NLMO      Total    Paramagnetic  Diamagnetic   Paramagnetic  Diamagnetic
   12       1.3912        0.2284       1.1628         0.4972       0.8940
   13       0.9865        1.0013      -0.0148        -0.1118       1.0983
   14      26.4241        0.0577      26.3664         0.4552      25.9689
   15       2.0504        1.6417       0.4087         0.2709       1.7796
   16      -0.1379       -0.0378      -0.1001        -1.2165       1.0785
   18       0.0039       -0.6452       0.6491        -1.1366       1.1406
   23       0.0011       -0.4411       0.4421        -1.0011       1.0022
   27      -0.3627       -1.2305       0.8677        -0.8514       0.4887
 Sum       30.3567        0.5745      29.7821        -3.0942      33.4508

 Contributions to Isotropic shielding for atom   18 (    32.3304 ppm):
                         Standard Origin              Atomic Origin
 NLMO      Total    Paramagnetic  Diamagnetic   Paramagnetic  Diamagnetic
   12       1.2999        0.3627       0.9372         0.2230       1.0769
   13       0.9925        1.2260      -0.2335        -0.0233       1.0158
   14       2.0464        1.5571       0.4893         0.2524       1.7939
   15      26.4630       -0.0306      26.4936         0.4223      26.0407
   17      -0.0459       -0.1247       0.0787        -1.1068       1.0609
   19      -0.0226       -0.6380       0.6154        -1.1213       1.0987
 Sum       30.7331        2.3525      28.3807        -1.3538      32.0869

 Contributions to Isotropic shielding for atom   19 (    33.0762 ppm):
                         Standard Origin              Atomic Origin
 NLMO      Total    Paramagnetic  Diamagnetic   Paramagnetic  Diamagnetic
    8       1.3358        0.5809       0.7549         0.4160       0.9198
   12       1.2091        0.7825       0.4266         0.2299       0.9792
   15       0.0021       -0.7234       0.7254        -1.1012       1.1033
   16       1.0910        1.2530      -0.1620        -0.0545       1.1455
   17      26.6347        0.0307      26.6040         0.3937      26.2410
   24      -0.0387       -0.7938       0.7551        -1.0736       1.0349
   30      -0.1536       -1.5758       1.4222        -1.0487       0.8951
 Sum       30.0804       -0.4459      30.5263        -2.2384      32.3188

 Contributions to Isotropic shielding for atom   20 (    32.7823 ppm):
                         Standard Origin              Atomic Origin
 NLMO      Total    Paramagnetic  Diamagnetic   Paramagnetic  Diamagnetic
    3      -0.0396       -1.2858       1.2462        -0.9209       0.8813
    5       1.2253        0.4962       0.7291         0.3712       0.8541
   13       1.4069       -0.0188       1.4257         0.4680       0.9389
   14      -0.0634       -0.2391       0.1757        -1.1896       1.1262
   18      26.4572        0.1440      26.3131         0.4135      26.0437
   19       1.9428        1.9510      -0.0082         0.1612       1.7816
 Sum       30.9291        1.0475      29.8816        -0.6967      31.6258

 Contributions to Isotropic shielding for atom   21 (    32.5044 ppm):
                         Standard Origin              Atomic Origin
 NLMO      Total    Paramagnetic  Diamagnetic   Paramagnetic  Diamagnetic
    1      -0.0992        0.1404      -0.2396        -1.0135       0.9143
    2      -0.0708       -1.4248       1.3541        -0.9634       0.8927
    5       0.9934        1.2333      -0.2398         0.1314       0.8620
   13       1.2176        0.8311       0.3864         0.2228       0.9948
   15      -0.0115        0.0707      -0.0822        -1.1481       1.1366
   18       2.0619        1.6712       0.3907         0.3051       1.7567
   19      26.4241       -0.0479      26.4720         0.4949      25.9292
 Sum       30.5156        2.4741      28.0415        -1.9708      32.4864

 Contributions to Isotropic shielding for atom   22 (    32.0708 ppm):
                         Standard Origin              Atomic Origin
 NLMO      Total    Paramagnetic  Diamagnetic   Paramagnetic  Diamagnetic
    1      -0.1404       -0.3981       0.2577        -1.1990       1.0586
    3      -0.0038       -1.3500       1.3462        -0.9454       0.9416
    6       0.9605        1.1515      -0.1910         0.0825       0.8779
    9       1.2455        0.3644       0.8811         0.2016       1.0439
   10      -0.0179        0.1564      -0.1743        -1.1136       1.0957
   11      -0.0946       -0.1122       0.0177        -1.2659       1.1713
   20      26.2986       -0.0268      26.3254         0.4612      25.8373
   21       1.9341        1.6165       0.3176         0.0691       1.8651
 Sum       30.1820        1.4018      28.7803        -3.7094      33.8915

 Contributions to Isotropic shielding for atom   23 (    32.7028 ppm):
                         Standard Origin              Atomic Origin
 NLMO      Total    Paramagnetic  Diamagnetic   Paramagnetic  Diamagnetic
    4      -0.0691       -1.3215       1.2524        -0.9201       0.8510
    6       0.9822        0.9110       0.0711        -0.0518       1.0340
    7       0.0343       -0.5106       0.5450        -1.0106       1.0449
    9       1.4305        0.3121       1.1184         0.5846       0.8459
   10      -0.2244        0.0635      -0.2879        -1.5816       1.3572
   20       1.9866        1.7253       0.2613         0.1517       1.8349
   21      26.4655        0.0938      26.3717         0.4539      26.0116
 Sum       30.6056        1.2736      29.3320        -2.3739      32.9795

 Contributions to Isotropic shielding for atom   24 (    35.5000 ppm):
                         Standard Origin              Atomic Origin
 NLMO      Total    Paramagnetic  Diamagnetic   Paramagnetic  Diamagnetic
    9      -0.1164        0.2689      -0.3853        -1.0265       0.9101
   10       2.0031        1.4115       0.5917         1.3798       0.6233
   21      -0.1646       -0.8164       0.6518        -1.0632       0.8986
   22      22.9530       -0.3418      23.2947        -0.1944      23.1474
   29      -0.2654       -1.1710       0.9055        -0.8691       0.6036
   43       3.8532        1.5741       2.2791         1.9113       1.9420
   44       5.6130        2.5490       3.0640         2.4721       3.1410
 Sum       33.8759        3.4743      30.4016         2.6100      31.2659

 Contributions to Isotropic shielding for atom   25 (    32.5273 ppm):
                         Standard Origin              Atomic Origin
 NLMO      Total    Paramagnetic  Diamagnetic   Paramagnetic  Diamagnetic
   12      -0.1674        0.3202      -0.4876        -1.3152       1.1478
   16       1.6693        0.0035       1.6658         0.6677       1.0017
   23       0.9497        1.6797      -0.7300        -0.0914       1.0410
   24       0.8484        2.0017      -1.1533        -0.2093       1.0578
   25      26.5385       -0.1500      26.6885         0.4570      26.0815
   31       0.1980       -0.6215       0.8195        -0.8274       1.0254
 Sum       30.0365        3.2336      26.8029        -1.3187      31.3553

 Contributions to Isotropic shielding for atom   26 (    32.3105 ppm):
                         Standard Origin              Atomic Origin
 NLMO      Total    Paramagnetic  Diamagnetic   Paramagnetic  Diamagnetic
    8      -0.1349        0.0684      -0.2033        -1.0727       0.9378
   10       0.0466       -0.1150       0.1616        -1.3035       1.3501
   23       1.4951       -0.6531       2.1482         0.5739       0.9212
   24      -0.1295        0.1507      -0.2802        -1.0192       0.8897
   26      26.0996        0.2810      25.8186         0.3954      25.7042
   27       2.1058        0.4150       1.6908         0.2816       1.8242
   28       1.9565        2.0736      -0.1172         0.1063       1.8502
 Sum       31.4391        2.2207      29.2185        -2.0383      33.4774

 Contributions to Isotropic shielding for atom   27 (    32.5582 ppm):
                         Standard Origin              Atomic Origin
 NLMO      Total    Paramagnetic  Diamagnetic   Paramagnetic  Diamagnetic
   12      -0.0742        0.0941      -0.1683        -1.0082       0.9340
   23       1.4971       -0.7395       2.2366         0.4979       0.9992
   26       2.1108        0.4112       1.6996         0.2554       1.8554
   27      26.3663        0.2820      26.0843         0.3675      25.9988
   28       1.9432        2.0087      -0.0655         0.0923       1.8509
 Sum       31.8431        2.0566      29.7866         0.2049      31.6382

 Contributions to Isotropic shielding for atom   28 (    32.5069 ppm):
                         Standard Origin              Atomic Origin
 NLMO      Total    Paramagnetic  Diamagnetic   Paramagnetic  Diamagnetic
   23       1.1575        0.8772       0.2803         0.1391       1.0184
   24      -0.1384        0.6173      -0.7557        -1.0912       0.9527
   26       2.0195        1.6898       0.3297         0.1410       1.8785
   27       2.0317        1.6393       0.3924         0.1768       1.8550
   28      26.3268       -0.0355      26.3623         0.4043      25.9225
 Sum       31.3971        4.7881      26.6090        -0.2300      31.6271

 Contributions to Isotropic shielding for atom   29 (    32.1780 ppm):
                         Standard Origin              Atomic Origin
 NLMO      Total    Paramagnetic  Diamagnetic   Paramagnetic  Diamagnetic
   22      -0.0813       -0.0229      -0.0584        -1.1294       1.0481
   23      -0.1507        0.2385      -0.3892        -1.0766       0.9260
   24       1.5190       -0.9347       2.4537         0.6150       0.9040
   29      26.0986        0.2887      25.8100         0.4263      25.6723
   30       1.9985        0.6352       1.3633         0.1955       1.8030
   31       1.8843        2.1042      -0.2199         0.0177       1.8666
 Sum       31.2685        2.3091      28.9594        -0.9515      32.2200

 Contributions to Isotropic shielding for atom   30 (    32.7594 ppm):
                         Standard Origin              Atomic Origin
 NLMO      Total    Paramagnetic  Diamagnetic   Paramagnetic  Diamagnetic
   16      -0.0461        0.0132      -0.0593        -1.0090       0.9629
   24       1.5987       -0.8037       2.4025         0.6107       0.9880
   29       2.0664        0.6652       1.4012         0.2139       1.8526
   30      26.4789        0.2872      26.1917         0.4100      26.0689
   31       1.9150        2.1967      -0.2817         0.0777       1.8373
 Sum       32.0131        2.3586      29.6545         0.3034      31.7097

 Contributions to Isotropic shielding for atom   31 (    32.4015 ppm):
                         Standard Origin              Atomic Origin
 NLMO      Total    Paramagnetic  Diamagnetic   Paramagnetic  Diamagnetic
   23      -0.1486        0.7078      -0.8564        -1.0674       0.9188
   24       1.1918        0.5070       0.6848         0.1583       1.0335
   29       1.9675        1.7608       0.2067         0.0755       1.8920
   30       1.9289        1.8055       0.1234         0.0889       1.8400
   31      26.4023        0.0006      26.4017         0.4546      25.9477
 Sum       31.3419        4.7817      26.5602        -0.2900      31.6319
 
 1\1\GINC-COMPUTE-6-16\SP\RHF\STO-3G\C10H20O1\YTSAI.IQUIR\03-Aug-2021\0
 \\# rhf/STO-3G nmr pop=nbo\\comment\\0,1\C,0,-2.040770435,-0.166238153
 ,-3.090602042\C,0,-1.490595886,-0.13245046,-1.666447468\C,0,0.67263848
 9,-0.715542407,-0.393685092\C,0,-0.655554447,1.352003478,0.208012231\C
 ,0,-0.021694322,0.047505872,0.750708215\C,0,-1.087745809,1.282960143,-
 1.259249039\C,0,-0.309289144,-1.101663117,-1.512504223\O,0,1.310886329
 ,-1.901459029,0.063146981\C,0,0.852534325,0.356452214,2.003237176\C,0,
 2.228010696,0.93989385,1.667374556\C,0,1.018240818,-0.857294948,2.9244
 27861\H,0,-2.920884071,0.47898673,-3.181770476\H,0,-1.294161164,0.1773
 17605,-3.8146354\H,0,-2.339901444,-1.182851038,-3.36672087\H,0,-2.2950
 46725,-0.463372919,-0.99550266\H,0,1.456141649,-0.081994334,-0.8264675
 98\H,0,0.024036879,2.204344955,0.320308204\H,0,-1.531168884,1.58687040
 2,0.827449859\H,0,-0.850624026,-0.584691653,1.102434915\H,0,-0.2599354
 92,1.624736377,-1.894490413\H,0,-1.913483917,1.985530862,-1.423860887\
 H,0,0.2608108,-1.169591946,-2.448804819\H,0,-0.703054963,-2.113630282,
 -1.348871897\H,0,0.632518921,-2.465903055,0.47176146\H,0,0.314369539,1
 .11053568,2.594600925\H,0,2.866492936,0.20781791,1.162625457\H,0,2.146
 524546,1.821065905,1.024556904\H,0,2.74470948,1.248781793,2.582875688\
 H,0,1.669068232,-1.622264327,2.493132875\H,0,0.049683957,-1.3146894,3.
 15085345\H,0,1.467243134,-0.551166707,3.876106128\\Version=EM64L-G09Re
 vC.01\State=1-A\HF=-459.6125963\RMSD=8.565e-09\Dipole=-0.5574558,0.142
 2763,0.0504291\Quadrupole=-1.3048354,0.7266556,0.5781798,2.4037784,-0.
 4252185,-0.6025453\PG=C01 [X(C10H20O1)]\\@


 CONTRAIWISE...CONTINUED TWEEDLEDEE, IF IT WAS SO, IT MIGHT BE,
 AND IF IT WERE SO, IT WOULD BE.....
 BUT AS IT ISN'T, IT AIN'T....
 THAT'S LOGIC.....
 ALICE THROUGH THE LOOKING GLASS
 Job cpu time:  0 days  0 hours  0 minutes 40.5 seconds.
 File lengths (MBytes):  RWF=      5 Int=      0 D2E=      0 Chk=      1 Scr=      1
 Normal termination of Gaussian 09 at Tue Aug  3 16:37:43 2021.
