 Entering Gaussian System, Link 0=g09
 Input=/home/ytsai.iquir/menthol/03_menthol_M0118_MMFF_NMR_rhf_STO-3G_nbo.gjc
 Output=/home/ytsai.iquir/menthol/03_menthol_M0118_MMFF_NMR_rhf_STO-3G_nbo.log
 Initial command:
 /share/apps/Gaussian09/EM64T.SSE4.2-enabled/g09/l1.exe /tmp/Gau-31443.inp -scrdir=/tmp/
 Entering Link 1 = /share/apps/Gaussian09/EM64T.SSE4.2-enabled/g09/l1.exe PID=     31444.
  
 Copyright (c) 1988,1990,1992,1993,1995,1998,2003,2009,2011,
            Gaussian, Inc.  All Rights Reserved.
  
 This is part of the Gaussian(R) 09 program.  It is based on
 the Gaussian(R) 03 system (copyright 2003, Gaussian, Inc.),
 the Gaussian(R) 98 system (copyright 1998, Gaussian, Inc.),
 the Gaussian(R) 94 system (copyright 1995, Gaussian, Inc.),
 the Gaussian 92(TM) system (copyright 1992, Gaussian, Inc.),
 the Gaussian 90(TM) system (copyright 1990, Gaussian, Inc.),
 the Gaussian 88(TM) system (copyright 1988, Gaussian, Inc.),
 the Gaussian 86(TM) system (copyright 1986, Carnegie Mellon
 University), and the Gaussian 82(TM) system (copyright 1983,
 Carnegie Mellon University). Gaussian is a federally registered
 trademark of Gaussian, Inc.
  
 This software contains proprietary and confidential information,
 including trade secrets, belonging to Gaussian, Inc.
  
 This software is provided under written license and may be
 used, copied, transmitted, or stored only in accord with that
 written license.
  
 The following legend is applicable only to US Government
 contracts under FAR:
  
                    RESTRICTED RIGHTS LEGEND
  
 Use, reproduction and disclosure by the US Government is
 subject to restrictions as set forth in subparagraphs (a)
 and (c) of the Commercial Computer Software - Restricted
 Rights clause in FAR 52.227-19.
  
 Gaussian, Inc.
 340 Quinnipiac St., Bldg. 40, Wallingford CT 06492
  
  
 ---------------------------------------------------------------
 Warning -- This program may not be used in any manner that
 competes with the business of Gaussian, Inc. or will provide
 assistance to any competitor of Gaussian, Inc.  The licensee
 of this program is prohibited from giving any competitor of
 Gaussian, Inc. access to this program.  By using this program,
 the user acknowledges that Gaussian, Inc. is engaged in the
 business of creating and licensing software in the field of
 computational chemistry and represents and warrants to the
 licensee that it is not a competitor of Gaussian, Inc. and that
 it will not use this program in any manner prohibited above.
 ---------------------------------------------------------------
  

 Cite this work as:
 Gaussian 09, Revision C.01,
 M. J. Frisch, G. W. Trucks, H. B. Schlegel, G. E. Scuseria, 
 M. A. Robb, J. R. Cheeseman, G. Scalmani, V. Barone, B. Mennucci, 
 G. A. Petersson, H. Nakatsuji, M. Caricato, X. Li, H. P. Hratchian, 
 A. F. Izmaylov, J. Bloino, G. Zheng, J. L. Sonnenberg, M. Hada, 
 M. Ehara, K. Toyota, R. Fukuda, J. Hasegawa, M. Ishida, T. Nakajima, 
 Y. Honda, O. Kitao, H. Nakai, T. Vreven, J. A. Montgomery, Jr., 
 J. E. Peralta, F. Ogliaro, M. Bearpark, J. J. Heyd, E. Brothers, 
 K. N. Kudin, V. N. Staroverov, T. Keith, R. Kobayashi, J. Normand, 
 K. Raghavachari, A. Rendell, J. C. Burant, S. S. Iyengar, J. Tomasi, 
 M. Cossi, N. Rega, J. M. Millam, M. Klene, J. E. Knox, J. B. Cross, 
 V. Bakken, C. Adamo, J. Jaramillo, R. Gomperts, R. E. Stratmann, 
 O. Yazyev, A. J. Austin, R. Cammi, C. Pomelli, J. W. Ochterski, 
 R. L. Martin, K. Morokuma, V. G. Zakrzewski, G. A. Voth, 
 P. Salvador, J. J. Dannenberg, S. Dapprich, A. D. Daniels, 
 O. Farkas, J. B. Foresman, J. V. Ortiz, J. Cioslowski, 
 and D. J. Fox, Gaussian, Inc., Wallingford CT, 2010.
 
 ******************************************
 Gaussian 09:  EM64L-G09RevC.01 23-Sep-2011
                 3-Aug-2021 
 ******************************************
 %nprocshared=4
 Will use up to    4 processors via shared memory.
 ------------------------
 # rhf/STO-3G nmr pop=nbo
 ------------------------
 1/38=1/1;
 2/12=2,17=6,18=5,40=1/2;
 3/6=3,11=1,16=1,25=1,30=1,116=1/1,2,8,3;
 4//1;
 5/5=2,38=5/2;
 8/6=1,10=90,11=11/1;
 10/13=100,45=16/2;
 6/7=2,8=2,9=2,10=2,28=1,64=1/1,7;
 99/9=1/99;
 -------
 comment
 -------
 Charge =  0 Multiplicity = 1
 Symbolic Z-Matrix:
 6                     0.30411   0.47402  -3.22263 
 6                    -0.77846   0.37113  -2.14709 
 6                    -0.05109  -1.12474  -0.21215 
 6                    -1.23924   1.10214   0.2364 
 6                    -0.66252  -0.19212   0.86141 
 6                    -0.58055   1.46755  -1.09017 
 6                    -0.82253  -1.03378  -1.53005 
 8                    -0.12909  -2.48253   0.21829 
 6                     0.27239   0.12672   2.0708 
 6                     1.51892   0.93929   1.709 
 6                     0.68794  -1.12169   2.85349 
 1                     1.29831   0.27625  -2.80783 
 1                     0.12333  -0.24799  -4.02599 
 1                     0.314     1.47409  -3.66891 
 1                    -1.74326   0.54066  -2.64364 
 1                     1.00123  -0.88913  -0.40289 
 1                    -1.17      1.94484   0.93371 
 1                    -2.31276   0.95388   0.05695 
 1                    -1.52054  -0.7225    1.30221 
 1                     0.48774   1.65273  -0.92823 
 1                    -1.00086   2.40935  -1.46342 
 1                    -0.45874  -1.79014  -2.23711 
 1                    -1.86951  -1.31039  -1.34105 
 1                     0.7195   -2.71298   0.63043 
 1                    -0.31545   0.74057   2.76802 
 1                     2.16555   0.40624   1.00604 
 1                     1.25437   1.90539   1.27039 
 1                     2.11197   1.14904   2.60642 
 1                     1.44485  -1.70381   2.32033 
 1                    -0.17301  -1.76556   3.05932 
 1                     1.1234   -0.83653   3.81794 
 
                          Input orientation:                          
 ---------------------------------------------------------------------
 Center     Atomic      Atomic             Coordinates (Angstroms)
 Number     Number       Type             X           Y           Z
 ---------------------------------------------------------------------
      1          6           0        0.304107    0.474019   -3.222627
      2          6           0       -0.778464    0.371135   -2.147094
      3          6           0       -0.051090   -1.124738   -0.212147
      4          6           0       -1.239238    1.102136    0.236402
      5          6           0       -0.662522   -0.192121    0.861409
      6          6           0       -0.580546    1.467552   -1.090166
      7          6           0       -0.822526   -1.033778   -1.530050
      8          8           0       -0.129095   -2.482528    0.218291
      9          6           0        0.272390    0.126719    2.070796
     10          6           0        1.518925    0.939294    1.708998
     11          6           0        0.687941   -1.121687    2.853495
     12          1           0        1.298312    0.276248   -2.807835
     13          1           0        0.123327   -0.247989   -4.025986
     14          1           0        0.314005    1.474087   -3.668906
     15          1           0       -1.743261    0.540658   -2.643639
     16          1           0        1.001235   -0.889129   -0.402894
     17          1           0       -1.169996    1.944840    0.933715
     18          1           0       -2.312764    0.953877    0.056949
     19          1           0       -1.520542   -0.722497    1.302212
     20          1           0        0.487740    1.652728   -0.928232
     21          1           0       -1.000859    2.409346   -1.463416
     22          1           0       -0.458741   -1.790136   -2.237112
     23          1           0       -1.869512   -1.310390   -1.341048
     24          1           0        0.719503   -2.712984    0.630427
     25          1           0       -0.315448    0.740565    2.768021
     26          1           0        2.165546    0.406240    1.006039
     27          1           0        1.254365    1.905390    1.270393
     28          1           0        2.111967    1.149038    2.606418
     29          1           0        1.444851   -1.703808    2.320330
     30          1           0       -0.173010   -1.765557    3.059319
     31          1           0        1.123400   -0.836531    3.817937
 ---------------------------------------------------------------------
                    Distance matrix (angstroms):
                    1          2          3          4          5
     1  C    0.000000
     2  C    1.529483   0.000000
     3  C    3.427124   2.551614   0.000000
     4  C    3.839443   2.535297   2.563564   0.000000
     5  C    4.249407   3.062971   1.547949   1.548656   0.000000
     6  C    2.513386   1.535709   2.787689   1.525511   2.563178
     7  C    2.531318   1.535078   1.529790   2.802878   2.540288
     8  O    4.557275   3.762994   1.426518   3.752674   2.438054
     9  C    5.304898   4.353692   2.623473   2.569331   1.561518
    10  C    5.100313   4.524407   3.227379   3.130898   2.599465
    11  C    6.293875   5.420771   3.153464   3.938094   2.579971
    12  H    1.095267   2.181417   3.243647   4.048287   4.186596
    13  H    1.095154   2.174115   3.917203   4.674117   4.950486
    14  H    1.095171   2.173914   4.340089   4.219282   4.924795
    15  H    2.128705   1.098238   3.398403   2.977235   3.740364
    16  H    3.208591   2.792459   1.095118   3.064891   2.202810
    17  H    4.648814   3.481556   3.462262   1.095989   2.197581
    18  H    4.223020   2.747994   3.083541   1.098472   2.164201
    19  H    5.023461   3.693836   2.148108   2.131752   1.100819
    20  H    2.585986   2.175174   2.918465   2.154525   2.815917
    21  H    2.922885   2.161292   3.867492   2.157546   3.505270
    22  H    2.584488   2.186646   2.170119   3.884930   3.492278
    23  H    3.383649   2.160468   2.148382   2.950572   2.749212
    24  H    5.017526   4.412519   1.956085   4.306630   2.884111
    25  H    6.028496   4.950679   3.525712   2.719047   2.150706
    26  H    4.620732   4.314010   2.956576   3.559377   2.894291
    27  H    4.810306   4.262107   3.617155   2.816454   2.870763
    28  H    6.140177   5.617438   4.218196   4.104845   3.541406
    29  H    6.063711   5.404295   2.997765   4.406860   2.975680
    30  H    6.686269   5.660280   3.335866   4.162856   2.747023
    31  H    7.208213   6.376296   4.207620   4.708279   3.513665
                    6          7          8          9         10
     6  C    0.000000
     7  C    2.551216   0.000000
     8  O    4.185571   2.374115   0.000000
     9  C    3.537939   3.938487   3.225079   0.000000
    10  C    3.538666   4.457223   4.080079   1.531347   0.000000
    11  C    4.885251   4.637316   3.076318   1.530953   2.499610
    12  H    2.810641   2.801224   4.336562   4.987575   4.570567
    13  H    3.472400   2.782409   4.803204   6.110104   6.020580
    14  H    2.729499   3.486516   5.564301   5.895872   5.537119
    15  H    2.150423   2.136980   4.464956   5.143937   5.454010
    16  H    2.920329   2.148839   2.049984   2.771697   2.840990
    17  H    2.161330   3.881113   4.604009   2.584375   2.973631
    18  H    2.140167   2.947905   4.074717   3.379762   4.172687
    19  H    3.376889   2.933569   2.491730   2.127556   3.487890
    20  H    1.096243   3.048983   4.335360   3.371832   2.920157
    21  H    1.096793   3.448383   5.245812   4.395703   4.309823
    22  H    3.455844   1.097431   2.572368   4.771473   5.189676
    23  H    3.072676   1.099280   2.614288   4.277115   5.083834
    24  H    4.703983   3.140899   0.971125   3.215352   3.891212
    25  H    3.935021   4.677481   4.113901   1.099311   2.127427
    26  H    3.614067   4.175401   3.772387   2.189948   1.093808
    27  H    3.021728   4.560117   4.719608   2.183710   1.093484
    28  H    4.584300   5.521440   4.890172   2.171651   1.095926
    29  H    5.078508   4.518336   2.739029   2.188096   2.713891
    30  H    5.276107   4.692513   2.930429   2.180887   3.464423
    31  H    5.683459   5.694427   4.151566   2.169003   2.785250
                   11         12         13         14         15
    11  C    0.000000
    12  H    5.863226   0.000000
    13  H    6.957686   1.771809   0.000000
    14  H    7.029906   1.773450   1.769014   0.000000
    15  H    6.236394   3.057457   2.452957   2.480888   0.000000
    16  H    3.279681   2.688884   3.782668   4.089488   3.820666
    17  H    4.067072   4.782879   5.574928   4.858805   3.885592
    18  H    4.597050   4.658974   4.904017   4.588304   2.790745
    19  H    2.728228   5.082904   5.596173   5.736075   4.149085
    20  H    4.694563   2.466704   3.652616   2.751979   3.026002
    21  H    5.827174   3.412296   3.859015   2.732721   2.331541
    22  H    5.260796   2.771805   2.432508   3.647235   2.692185
    23  H    4.916337   3.834579   3.508418   4.235562   2.266950
    24  H    2.734091   4.592621   5.302246   6.015003   5.231721
    25  H    2.117092   5.823228   6.879557   6.509093   5.600418
    26  H    2.816197   3.913391   5.469913   5.140390   5.349485
    27  H    3.462693   4.391808   5.828201   5.046481   5.115457
    28  H    2.691671   5.544179   7.063650   6.535902   6.541866
    29  H    1.093638   5.499106   6.643911   6.873774   6.312105
    30  H    1.094609   6.384140   7.252060   7.483414   6.348862
    31  H    1.095941   6.720843   7.929292   7.876986   7.201831
                   16         17         18         19         20
    16  H    0.000000
    17  H    3.812105   0.000000
    18  H    3.819780   1.748327   0.000000
    19  H    3.048690   2.715393   2.233501   0.000000
    20  H    2.645883   2.510033   3.049885   3.827502   0.000000
    21  H    4.001628   2.447572   2.480120   4.210369   1.753517
    22  H    2.511513   4.950765   4.028613   3.846308   3.802934
    23  H    3.049391   4.032418   2.697735   2.730242   3.808822
    24  H    2.115082   5.035625   4.792639   3.071016   4.641398
    25  H    3.800561   2.354827   3.374120   2.396121   3.890944
    26  H    2.240244   3.674011   4.610416   3.866394   2.847836
    27  H    3.267002   2.447945   3.886159   3.821898   2.342116
    28  H    3.800501   3.768622   5.110394   4.289372   3.922444
    29  H    2.876881   4.698166   5.128923   3.285284   4.768181
    30  H    3.759508   4.390811   4.581277   2.447701   5.293565
    31  H    4.222927   4.616755   5.399798   3.651343   5.396907
                   21         22         23         24         25
    21  H    0.000000
    22  H    4.304434   0.000000
    23  H    3.821776   1.738782   0.000000
    24  H    5.795006   3.234607   3.543584   0.000000
    25  H    4.599965   5.610378   4.848297   4.191353   0.000000
    26  H    4.487401   4.714762   4.973664   3.458566   3.061321
    27  H    3.579626   5.375336   5.188398   4.693081   2.462523
    28  H    5.276515   6.221500   6.122373   4.556173   2.466843
    29  H    6.100514   4.939776   4.954339   2.097698   3.045331
    30  H    6.210498   5.304190   4.737988   2.755670   2.527012
    31  H    6.552930   6.330573   5.983076   3.720811   2.379042
                   26         27         28         29         30
    26  H    0.000000
    27  H    1.774143   0.000000
    28  H    1.765172   1.758553   0.000000
    29  H    2.588254   3.763637   2.943743   0.000000
    30  H    3.794931   4.325911   3.731100   1.779717   0.000000
    31  H    3.246124   3.745032   2.527357   1.760207   1.766145
                   31
    31  H    0.000000
 Stoichiometry    C10H20O
 Framework group  C1[X(C10H20O)]
 Deg. of freedom    87
 Full point group                 C1      NOp   1
 Largest Abelian subgroup         C1      NOp   1
 Largest concise Abelian subgroup C1      NOp   1
                         Standard orientation:                         
 ---------------------------------------------------------------------
 Center     Atomic      Atomic             Coordinates (Angstroms)
 Number     Number       Type             X           Y           Z
 ---------------------------------------------------------------------
      1          6           0       -3.111021   -0.098475    1.080240
      2          6           0       -2.292771   -0.086959   -0.211909
      3          6           0       -0.007979    0.998125    0.124322
      4          6           0       -0.237308   -1.165339   -1.231663
      5          6           0        0.721459   -0.046602   -0.754662
      6          6           0       -1.435197   -1.357378   -0.306802
      7          6           0       -1.454885    1.193635   -0.332289
      8          8           0        0.634984    2.266478    0.011037
      9          6           0        2.024900   -0.640180   -0.132533
     10          6           0        1.797852   -1.481959    1.126387
     11          6           0        3.092042    0.420588    0.149949
     12          1           0       -2.463498   -0.056574    1.962605
     13          1           0       -3.789603    0.760286    1.117920
     14          1           0       -3.718829   -1.007078    1.146634
     15          1           0       -3.007296   -0.089889   -1.045919
     16          1           0       -0.007786    0.710735    1.181058
     17          1           0        0.293626   -2.115617   -1.359224
     18          1           0       -0.613172   -0.900059   -2.229157
     19          1           0        1.056509    0.472305   -1.665859
     20          1           0       -1.083976   -1.655555    0.687926
     21          1           0       -2.054748   -2.185039   -0.672983
     22          1           0       -1.917846    2.024573    0.215035
     23          1           0       -1.448158    1.521151   -1.381624
     24          1           0        1.254620    2.353087    0.753759
     25          1           0        2.456184   -1.310769   -0.889360
     26          1           0        1.359014   -0.894685    1.938143
     27          1           0        1.144626   -2.335562    0.925477
     28          1           0        2.748309   -1.887638    1.491227
     29          1           0        2.848745    1.018454    1.032789
     30          1           0        3.221591    1.090543   -0.705941
     31          1           0        4.059267   -0.057230    0.342956
 ---------------------------------------------------------------------
 Rotational constants (GHZ):      1.6112161      0.7835202      0.6479882
 Standard basis: STO-3G (5D, 7F)
 There are    75 symmetry adapted basis functions of A   symmetry.
 Integral buffers will be    131072 words long.
 Raffenetti 1 integral format.
 Two-electron integral symmetry is turned on.
    75 basis functions,   225 primitive gaussians,    75 cartesian basis functions
    44 alpha electrons       44 beta electrons
       nuclear repulsion energy       698.3042713702 Hartrees.
 NAtoms=   31 NActive=   31 NUniq=   31 SFac= 1.00D+00 NAtFMM=   60 NAOKFM=F Big=F
 One-electron integrals computed using PRISM.
 NBasis=    75 RedAO= T  NBF=    75
 NBsUse=    75 1.00D-06 NBFU=    75
 Harris functional with IExCor=  205 diagonalized for initial guess.
 ExpMin= 1.69D-01 ExpMax= 1.31D+02 ExpMxC= 1.31D+02 IAcc=1 IRadAn=         1 AccDes= 0.00D+00
 HarFok:  IExCor=  205 AccDes= 0.00D+00 IRadAn=         1 IDoV= 1
 ScaDFX=  1.000000  1.000000  1.000000  1.000000
 FoFCou: FMM=F IPFlag=           0 FMFlag=      100000 FMFlg1=           0
         NFxFlg=           0 DoJE=T BraDBF=F KetDBF=T FulRan=T
         Omega=  0.000000  0.000000  1.000000  0.000000  0.000000 ICntrl=     500 IOpCl=  0
         NMat0=    1 NMatS0=    1 NMatT0=    0 NMatD0=    1 NMtDS0=    0 NMtDT0=    0
         I1Cent=           4 NGrid=           0.
 Petite list used in FoFCou.
 Initial guess orbital symmetries:
       Occupied  (A) (A) (A) (A) (A) (A) (A) (A) (A) (A) (A) (A)
                 (A) (A) (A) (A) (A) (A) (A) (A) (A) (A) (A) (A)
                 (A) (A) (A) (A) (A) (A) (A) (A) (A) (A) (A) (A)
                 (A) (A) (A) (A) (A) (A) (A) (A)
       Virtual   (A) (A) (A) (A) (A) (A) (A) (A) (A) (A) (A) (A)
                 (A) (A) (A) (A) (A) (A) (A) (A) (A) (A) (A) (A)
                 (A) (A) (A) (A) (A) (A) (A)
 The electronic state of the initial guess is 1-A.
 Requested convergence on RMS density matrix=1.00D-08 within 128 cycles.
 Requested convergence on MAX density matrix=1.00D-06.
 Requested convergence on             energy=1.00D-06.
 No special actions if energy rises.
 Keep R1 ints in memory in canonical form, NReq=4898789.
 SCF Done:  E(RHF) =  -459.608089432     A.U. after   11 cycles
             Convg  =    0.1218D-08             -V/T =  2.0089
 Range of M.O.s used for correlation:     1    75
 NBasis=    75 NAE=    44 NBE=    44 NFC=     0 NFV=     0
 NROrb=     75 NOA=    44 NOB=    44 NVA=    31 NVB=    31
          Differentiating once with respect to magnetic field using GIAOs.
          Electric field/nuclear overlap derivatives assumed to be zero.
          Keep R3 ints in memory in canonical form, NReq=4863575.
 FoFCou: FMM=F IPFlag=           0 FMFlag=           0 FMFlg1=           0
         NFxFlg=           0 DoJE=F BraDBF=F KetDBF=T FulRan=T
         Omega=  0.000000  0.000000  1.000000  0.000000  0.000000 ICntrl=    6100 IOpCl=  0
         NMat0=    1 NMatS0=    1 NMatT0=    0 NMatD0=    1 NMtDS0=    0 NMtDT0=    0
         I1Cent=           7 NGrid=          31.
 Symmetry not used in FoFCou.
          There are     3 degrees of freedom in the 1st order CPHF.  IDoFFX=0.
      3 vectors produced by pass  0 Test12= 4.55D-14 3.33D-08 XBig12= 6.89D+00 3.94D-01.
 AX will form     3 AO Fock derivatives at one time.
      3 vectors produced by pass  1 Test12= 4.55D-14 3.33D-08 XBig12= 1.08D-02 1.40D-02.
      3 vectors produced by pass  2 Test12= 4.55D-14 3.33D-08 XBig12= 6.17D-05 2.57D-03.
      3 vectors produced by pass  3 Test12= 4.55D-14 3.33D-08 XBig12= 1.71D-06 3.18D-04.
      3 vectors produced by pass  4 Test12= 4.55D-14 3.33D-08 XBig12= 1.97D-08 3.29D-05.
      3 vectors produced by pass  5 Test12= 4.55D-14 3.33D-08 XBig12= 2.68D-10 2.95D-06.
      3 vectors produced by pass  6 Test12= 4.55D-14 3.33D-08 XBig12= 2.43D-12 3.08D-07.
 Inverted reduced A of dimension    21 with in-core refinement.
 Calculating GIAO nuclear magnetic shielding tensors.
 SCF GIAO Magnetic shielding tensor (ppm):
      1  C    Isotropic =   220.8317   Anisotropy =    26.5899
   XX=   221.9732   YX=    -4.1570   ZX=   -12.6986
   XY=     0.0512   YY=   215.2712   ZY=    -0.2367
   XZ=   -16.9716   YZ=    -1.5666   ZZ=   225.2506
   Eigenvalues:   208.0560   215.8807   238.5583
      2  C    Isotropic =   216.4018   Anisotropy =     8.9084
   XX=   220.3363   YX=     0.4197   ZX=    -4.9074
   XY=    -0.6165   YY=   219.3152   ZY=     2.1057
   XZ=    -4.9990   YZ=    -0.0216   ZZ=   209.5539
   Eigenvalues:   207.5495   219.3152   222.3407
      3  C    Isotropic =   189.7452   Anisotropy =    46.5761
   XX=   193.1282   YX=    16.4344   ZX=    -1.3112
   XY=    16.4578   YY=   210.9863   ZY=     0.9780
   XZ=    -4.6572   YZ=    -0.1631   ZZ=   165.1210
   Eigenvalues:   164.6843   183.7553   220.7959
      4  C    Isotropic =   216.5028   Anisotropy =    17.3898
   XX=   223.7156   YX=     6.2352   ZX=    -0.0174
   XY=     5.3840   YY=   217.8421   ZY=     7.7132
   XZ=     0.2331   YZ=     6.3308   ZZ=   207.9507
   Eigenvalues:   203.9424   217.4700   228.0960
      5  C    Isotropic =   208.9303   Anisotropy =     8.5494
   XX=   213.3035   YX=    -1.7581   ZX=     3.4566
   XY=    -3.1992   YY=   209.9069   ZY=     3.8015
   XZ=    -0.4988   YZ=    -0.1231   ZZ=   203.5804
   Eigenvalues:   202.6600   209.5009   214.6299
      6  C    Isotropic =   217.2938   Anisotropy =    16.9525
   XX=   220.2679   YX=    -5.2982   ZX=    -7.4071
   XY=    -8.1688   YY=   218.1047   ZY=     2.4130
   XZ=    -6.1925   YZ=     0.4633   ZZ=   213.5088
   Eigenvalues:   208.5182   214.7677   228.5955
      7  C    Isotropic =   216.2824   Anisotropy =    17.6944
   XX=   224.5676   YX=     6.3926   ZX=    -1.5284
   XY=     4.2358   YY=   220.0240   ZY=    -0.6674
   XZ=    -0.7567   YZ=     3.1062   ZZ=   204.2555
   Eigenvalues:   204.0349   216.7337   228.0786
      8  O    Isotropic =   361.1858   Anisotropy =    62.5837
   XX=   367.2322   YX=    10.4144   ZX=    21.3172
   XY=    -9.7489   YY=   337.2138   ZY=    -1.5366
   XZ=    36.7143   YZ=     8.2075   ZZ=   379.1115
   Eigenvalues:   336.6029   344.0463   402.9083
      9  C    Isotropic =   211.6211   Anisotropy =    18.3548
   XX=   220.8369   YX=    -1.5670   ZX=     4.1148
   XY=    -3.0829   YY=   209.7493   ZY=    -2.7574
   XZ=     9.9870   YZ=     1.2072   ZZ=   204.2771
   Eigenvalues:   201.6809   209.3247   223.8576
     10  C    Isotropic =   224.4955   Anisotropy =    19.5022
   XX=   221.1631   YX=     1.8486   ZX=    -0.8304
   XY=     3.3867   YY=   224.4844   ZY=    -9.0248
   XZ=    -2.1232   YZ=   -12.4054   ZZ=   227.8390
   Eigenvalues:   215.1294   220.8601   237.4970
     11  C    Isotropic =   220.7826   Anisotropy =    24.7502
   XX=   226.8916   YX=    11.4637   ZX=     1.5560
   XY=    11.8511   YY=   223.8769   ZY=    -2.1112
   XZ=     4.3329   YZ=     1.2146   ZZ=   211.5791
   Eigenvalues:   210.0078   215.0571   237.2827
     12  H    Isotropic =    32.7037   Anisotropy =     9.3899
   XX=    32.2230   YX=     0.1468   ZX=     0.9479
   XY=     0.3538   YY=    27.0358   ZY=     0.1659
   XZ=     0.7421   YZ=     0.2844   ZZ=    38.8522
   Eigenvalues:    27.0209    32.1265    38.9636
     13  H    Isotropic =    32.4664   Anisotropy =    14.2564
   XX=    36.1160   YX=    -6.2625   ZX=    -3.7038
   XY=    -5.9936   YY=    32.9095   ZY=     1.1491
   XZ=    -3.9471   YZ=     1.6830   ZZ=    28.3738
   Eigenvalues:    26.4591    28.9695    41.9707
     14  H    Isotropic =    32.4789   Anisotropy =    13.8641
   XX=    35.0677   YX=     5.6293   ZX=    -4.0220
   XY=     6.0641   YY=    33.7610   ZY=    -1.5673
   XZ=    -4.3663   YZ=    -1.9354   ZZ=    28.6080
   Eigenvalues:    26.2966    29.4185    41.7216
     15  H    Isotropic =    32.3488   Anisotropy =    14.3495
   XX=    35.9914   YX=     0.0712   ZX=     6.9328
   XY=     0.4060   YY=    27.0871   ZY=    -0.0801
   XZ=     6.7868   YZ=    -0.0143   ZZ=    33.9680
   Eigenvalues:    27.0488    28.0825    41.9152
     16  H    Isotropic =    32.2527   Anisotropy =     4.9135
   XX=    32.1489   YX=    -0.3067   ZX=     0.4789
   XY=     0.1379   YY=    29.2594   ZY=    -1.0503
   XZ=     0.8426   YZ=    -0.0284   ZZ=    35.3499
   Eigenvalues:    29.2118    32.0180    35.5284
     17  H    Isotropic =    32.5399   Anisotropy =    12.1452
   XX=    32.1232   YX=    -3.1598   ZX=    -0.5341
   XY=    -3.6343   YY=    37.2199   ZY=     5.1367
   XZ=    -0.4079   YZ=     4.5719   ZZ=    28.2766
   Eigenvalues:    25.9848    30.9982    40.6367
     18  H    Isotropic =    32.2105   Anisotropy =    13.4882
   XX=    29.3527   YX=     0.5241   ZX=     3.2402
   XY=     0.6284   YY=    26.9027   ZY=     0.9917
   XZ=     2.7316   YZ=     0.7757   ZZ=    40.3761
   Eigenvalues:    26.7695    28.6594    41.2027
     19  H    Isotropic =    31.9507   Anisotropy =    11.3609
   XX=    30.5326   YX=     1.9889   ZX=    -2.5424
   XY=     2.3055   YY=    28.9223   ZY=    -4.1823
   XZ=    -2.5604   YZ=    -4.4482   ZZ=    36.3973
   Eigenvalues:    26.6823    29.6452    39.5247
     20  H    Isotropic =    33.0909   Anisotropy =     8.2808
   XX=    33.3626   YX=    -1.3717   ZX=     0.9426
   XY=    -1.3559   YY=    31.0483   ZY=    -4.7283
   XZ=     0.7430   YZ=    -5.0423   ZZ=    34.8619
   Eigenvalues:    27.6342    33.0272    38.6115
     21  H    Isotropic =    32.4243   Anisotropy =    14.7544
   XX=    32.9840   YX=     5.7284   ZX=     0.7397
   XY=     5.7740   YY=    37.4378   ZY=     3.8532
   XZ=     0.8087   YZ=     3.9711   ZZ=    26.8511
   Eigenvalues:    25.3449    29.6675    42.2605
     22  H    Isotropic =    32.1149   Anisotropy =    12.8341
   XX=    32.6099   YX=    -3.8127   ZX=    -2.3676
   XY=    -3.8188   YY=    37.1284   ZY=     3.3229
   XZ=    -3.0707   YZ=     3.6586   ZZ=    26.6064
   Eigenvalues:    25.1730    30.5008    40.6710
     23  H    Isotropic =    31.9829   Anisotropy =    12.3223
   XX=    29.5163   YX=    -0.8069   ZX=     1.9451
   XY=    -0.6181   YY=    30.7994   ZY=    -5.9851
   XZ=     2.3013   YZ=    -6.1796   ZZ=    35.6332
   Eigenvalues:    26.5333    29.2177    40.1978
     24  H    Isotropic =    34.4968   Anisotropy =    17.1458
   XX=    35.2684   YX=     4.6021   ZX=     8.4166
   XY=     3.7630   YY=    34.6563   ZY=     2.7609
   XZ=     9.1716   YZ=     4.3618   ZZ=    33.5656
   Eigenvalues:    25.5776    31.9854    45.9273
     25  H    Isotropic =    32.4102   Anisotropy =    12.6113
   XX=    32.9900   YX=    -3.7003   ZX=    -3.5247
   XY=    -3.5439   YY=    31.6821   ZY=     5.9266
   XZ=    -3.2507   YZ=     5.1753   ZZ=    32.5585
   Eigenvalues:    26.5216    29.8912    40.8177
     26  H    Isotropic =    32.9678   Anisotropy =     9.0448
   XX=    30.8773   YX=    -2.3341   ZX=    -2.1919
   XY=    -2.4918   YY=    29.9407   ZY=     1.1699
   XZ=    -2.0247   YZ=     1.0655   ZZ=    38.0855
   Eigenvalues:    27.9257    31.9801    38.9976
     27  H    Isotropic =    32.6312   Anisotropy =    10.1767
   XX=    32.4545   YX=     4.0898   ZX=     2.2885
   XY=     3.7856   YY=    37.0389   ZY=    -2.2349
   XZ=     2.0918   YZ=    -2.7272   ZZ=    28.4003
   Eigenvalues:    25.9808    32.4971    39.4157
     28  H    Isotropic =    32.6278   Anisotropy =    14.5505
   XX=    35.8697   YX=    -4.6372   ZX=     4.6038
   XY=    -4.5037   YY=    31.5094   ZY=    -4.5376
   XZ=     4.8103   YZ=    -4.7573   ZZ=    30.5042
   Eigenvalues:    26.2919    29.2632    42.3281
     29  H    Isotropic =    33.2013   Anisotropy =     9.3472
   XX=    32.4509   YX=     0.8725   ZX=     0.9520
   XY=     1.1030   YY=    33.6528   ZY=     5.6579
   XZ=     1.4301   YZ=     5.3743   ZZ=    33.5003
   Eigenvalues:    28.0542    32.1170    39.4328
     30  H    Isotropic =    32.3112   Anisotropy =    12.0705
   XX=    32.7302   YX=     3.7299   ZX=    -2.9812
   XY=     3.8560   YY=    32.4950   ZY=    -5.7166
   XZ=    -2.2522   YZ=    -5.2954   ZZ=    31.7085
   Eigenvalues:    26.4794    30.0960    40.3582
     31  H    Isotropic =    32.4293   Anisotropy =    14.7286
   XX=    41.6745   YX=    -1.8628   ZX=     1.9617
   XY=    -1.7006   YY=    28.8374   ZY=    -0.6058
   XZ=     2.4008   YZ=    -0.8943   ZZ=    26.7760
   Eigenvalues:    26.3570    28.6825    42.2484
 End of Minotr Frequency-dependent properties file   721 does not exist.
 End of Minotr Frequency-dependent properties file   722 does not exist.

 **********************************************************************

            Population analysis using the SCF density.

 **********************************************************************

 Orbital symmetries:
       Occupied  (A) (A) (A) (A) (A) (A) (A) (A) (A) (A) (A) (A)
                 (A) (A) (A) (A) (A) (A) (A) (A) (A) (A) (A) (A)
                 (A) (A) (A) (A) (A) (A) (A) (A) (A) (A) (A) (A)
                 (A) (A) (A) (A) (A) (A) (A) (A)
       Virtual   (A) (A) (A) (A) (A) (A) (A) (A) (A) (A) (A) (A)
                 (A) (A) (A) (A) (A) (A) (A) (A) (A) (A) (A) (A)
                 (A) (A) (A) (A) (A) (A) (A)
 The electronic state is 1-A.
 Alpha  occ. eigenvalues --  -20.23476 -11.08440 -11.04789 -11.04457 -11.03867
 Alpha  occ. eigenvalues --  -11.03534 -11.03476 -11.03353 -11.03327 -11.03196
 Alpha  occ. eigenvalues --  -11.03091  -1.27640  -1.08115  -1.03763  -0.96826
 Alpha  occ. eigenvalues --   -0.94424  -0.89277  -0.87857  -0.79928  -0.78586
 Alpha  occ. eigenvalues --   -0.73073  -0.67984  -0.64167  -0.60789  -0.59474
 Alpha  occ. eigenvalues --   -0.56773  -0.56201  -0.54547  -0.54215  -0.51724
 Alpha  occ. eigenvalues --   -0.51261  -0.50337  -0.48384  -0.48158  -0.47893
 Alpha  occ. eigenvalues --   -0.45583  -0.43647  -0.42607  -0.42051  -0.40921
 Alpha  occ. eigenvalues --   -0.39901  -0.38333  -0.37077  -0.32429
 Alpha virt. eigenvalues --    0.52816   0.55497   0.56706   0.59798   0.60175
 Alpha virt. eigenvalues --    0.61473   0.61974   0.64545   0.65170   0.66426
 Alpha virt. eigenvalues --    0.67130   0.68978   0.70172   0.71252   0.71971
 Alpha virt. eigenvalues --    0.72119   0.73589   0.74041   0.74982   0.75768
 Alpha virt. eigenvalues --    0.77389   0.78254   0.79080   0.80065   0.80475
 Alpha virt. eigenvalues --    0.80997   0.81932   0.83141   0.85674   0.86175
 Alpha virt. eigenvalues --    0.88170
          Condensed to atoms (all electrons):
              1          2          3          4          5          6
     1  C    4.741795   0.364939  -0.000019   0.000750   0.000013  -0.024995
     2  C    0.364939   4.747172  -0.019814  -0.022205  -0.002433   0.362799
     3  C   -0.000019  -0.019814   4.740813  -0.020295   0.355469  -0.007958
     4  C    0.000750  -0.022205  -0.020295   4.759831   0.357044   0.363327
     5  C    0.000013  -0.002433   0.355469   0.357044   4.793834  -0.020978
     6  C   -0.024995   0.362799  -0.007958   0.363327  -0.020978   4.757617
     7  C   -0.024396   0.360525   0.359711  -0.006505  -0.023815  -0.022175
     8  O   -0.000001   0.000251   0.266242   0.000236  -0.019703   0.000006
     9  C    0.000000   0.000003  -0.018679  -0.021785   0.357459   0.000275
    10  C    0.000000   0.000006  -0.001775  -0.001569  -0.020229  -0.000406
    11  C    0.000000   0.000000  -0.000866   0.000630  -0.021195  -0.000005
    12  H    0.381965  -0.020774  -0.000009   0.000015   0.000008  -0.002308
    13  H    0.382602  -0.020160   0.000016  -0.000018  -0.000001   0.001302
    14  H    0.382314  -0.020137  -0.000012   0.000014   0.000000  -0.002251
    15  H   -0.024972   0.383585   0.001223  -0.000226   0.000005  -0.023705
    16  H    0.000056  -0.001696   0.376396   0.000186  -0.024281  -0.000050
    17  H   -0.000016   0.001255   0.000936   0.382549  -0.020204  -0.021269
    18  H    0.000007  -0.002494   0.000540   0.382015  -0.022171  -0.023869
    19  H    0.000000   0.000064  -0.023820  -0.023781   0.380143   0.001233
    20  H   -0.004978  -0.022248  -0.000039  -0.023253  -0.001918   0.381986
    21  H   -0.000201  -0.021539   0.000067  -0.021142   0.001191   0.382970
    22  H   -0.005453  -0.020190  -0.020741   0.000058   0.001145   0.001074
    23  H    0.001329  -0.021617  -0.023201  -0.000067  -0.002651   0.000379
    24  H    0.000001  -0.000043  -0.040826  -0.000026   0.001164  -0.000002
    25  H    0.000000  -0.000001   0.001057  -0.002938  -0.023314   0.000022
    26  H    0.000000   0.000002  -0.000575   0.000027  -0.001593  -0.000045
    27  H    0.000000   0.000004   0.000033  -0.000337  -0.001412  -0.000738
    28  H    0.000000   0.000000   0.000014   0.000010   0.001103   0.000009
    29  H    0.000000   0.000000   0.000119  -0.000005  -0.000845   0.000000
    30  H    0.000000   0.000000  -0.000003   0.000020  -0.002738   0.000000
    31  H    0.000000   0.000000  -0.000004  -0.000014   0.001134   0.000000
              7          8          9         10         11         12
     1  C   -0.024396  -0.000001   0.000000   0.000000   0.000000   0.381965
     2  C    0.360525   0.000251   0.000003   0.000006   0.000000  -0.020774
     3  C    0.359711   0.266242  -0.018679  -0.001775  -0.000866  -0.000009
     4  C   -0.006505   0.000236  -0.021785  -0.001569   0.000630   0.000015
     5  C   -0.023815  -0.019703   0.357459  -0.020229  -0.021195   0.000008
     6  C   -0.022175   0.000006   0.000275  -0.000406  -0.000005  -0.002308
     7  C    4.771177  -0.021291   0.000578   0.000008  -0.000001  -0.001957
     8  O   -0.021291   7.849593   0.000107   0.000007  -0.000609  -0.000002
     9  C    0.000578   0.000107   4.745277   0.363999   0.363849   0.000000
    10  C    0.000008   0.000007   0.363999   4.745185  -0.026668   0.000000
    11  C   -0.000001  -0.000609   0.363849  -0.026668   4.744771   0.000000
    12  H   -0.001957  -0.000002   0.000000   0.000000   0.000000   0.634041
    13  H   -0.002350   0.000000   0.000000   0.000000   0.000000  -0.021878
    14  H    0.001298   0.000000   0.000000   0.000000   0.000000  -0.021723
    15  H   -0.024698  -0.000005   0.000000   0.000000   0.000000   0.001940
    16  H   -0.024905  -0.015674  -0.002878  -0.000577   0.000040   0.000018
    17  H    0.000047  -0.000004  -0.005393  -0.000369   0.000042  -0.000001
    18  H   -0.000167  -0.000003   0.001215   0.000009  -0.000016  -0.000001
    19  H   -0.000699  -0.001505  -0.024827   0.001182  -0.002645   0.000000
    20  H   -0.000040   0.000000   0.000125  -0.000619  -0.000003   0.000336
    21  H    0.001183   0.000000  -0.000012   0.000007   0.000000   0.000011
    22  H    0.382195  -0.000811  -0.000012   0.000000   0.000000   0.000034
    23  H    0.380747  -0.000534   0.000009   0.000000   0.000000   0.000001
    24  H    0.002657   0.259209  -0.000030   0.000022  -0.001281   0.000001
    25  H   -0.000014  -0.000011   0.381993  -0.024837  -0.025281   0.000000
    26  H   -0.000006   0.000003  -0.020486   0.382001  -0.001957   0.000000
    27  H   -0.000002   0.000000  -0.019744   0.382924   0.001347   0.000000
    28  H    0.000000   0.000000  -0.019822   0.382236  -0.002828   0.000000
    29  H   -0.000001  -0.000906  -0.020773  -0.003054   0.381603   0.000000
    30  H   -0.000002  -0.000040  -0.019933   0.001316   0.382892   0.000000
    31  H    0.000000   0.000013  -0.019972  -0.001654   0.382267   0.000000
             13         14         15         16         17         18
     1  C    0.382602   0.382314  -0.024972   0.000056  -0.000016   0.000007
     2  C   -0.020160  -0.020137   0.383585  -0.001696   0.001255  -0.002494
     3  C    0.000016  -0.000012   0.001223   0.376396   0.000936   0.000540
     4  C   -0.000018   0.000014  -0.000226   0.000186   0.382549   0.382015
     5  C   -0.000001   0.000000   0.000005  -0.024281  -0.020204  -0.022171
     6  C    0.001302  -0.002251  -0.023705  -0.000050  -0.021269  -0.023869
     7  C   -0.002350   0.001298  -0.024698  -0.024905   0.000047  -0.000167
     8  O    0.000000   0.000000  -0.000005  -0.015674  -0.000004  -0.000003
     9  C    0.000000   0.000000   0.000000  -0.002878  -0.005393   0.001215
    10  C    0.000000   0.000000   0.000000  -0.000577  -0.000369   0.000009
    11  C    0.000000   0.000000   0.000000   0.000040   0.000042  -0.000016
    12  H   -0.021878  -0.021723   0.001940   0.000018  -0.000001  -0.000001
    13  H    0.630880  -0.021721  -0.002581   0.000008   0.000000   0.000000
    14  H   -0.021721   0.630953  -0.002219  -0.000009  -0.000001   0.000000
    15  H   -0.002581  -0.002219   0.652148  -0.000004  -0.000020   0.000325
    16  H    0.000008  -0.000009  -0.000004   0.661455  -0.000025  -0.000024
    17  H    0.000000  -0.000001  -0.000020  -0.000025   0.639550  -0.024136
    18  H    0.000000   0.000000   0.000325  -0.000024  -0.024136   0.647749
    19  H    0.000000   0.000000  -0.000001   0.001775   0.000763  -0.007262
    20  H    0.000065  -0.000104   0.001880  -0.000476  -0.002078   0.002044
    21  H   -0.000020   0.000170  -0.005294   0.000003  -0.002405  -0.002268
    22  H    0.000066   0.000081   0.000585  -0.002187   0.000000   0.000005
    23  H    0.000049  -0.000038  -0.006610   0.001987   0.000002  -0.000350
    24  H    0.000000   0.000000   0.000001  -0.008868   0.000001   0.000000
    25  H    0.000000   0.000000   0.000000   0.000012   0.000030   0.000059
    26  H    0.000000   0.000000   0.000000  -0.000450   0.000026  -0.000003
    27  H    0.000000   0.000000   0.000000   0.000031  -0.000205   0.000005
    28  H    0.000000   0.000000   0.000000  -0.000014  -0.000021   0.000000
    29  H    0.000000   0.000000   0.000000   0.000009   0.000000   0.000000
    30  H    0.000000   0.000000   0.000000   0.000018   0.000003  -0.000001
    31  H    0.000000   0.000000   0.000000  -0.000006  -0.000003   0.000000
             19         20         21         22         23         24
     1  C    0.000000  -0.004978  -0.000201  -0.005453   0.001329   0.000001
     2  C    0.000064  -0.022248  -0.021539  -0.020190  -0.021617  -0.000043
     3  C   -0.023820  -0.000039   0.000067  -0.020741  -0.023201  -0.040826
     4  C   -0.023781  -0.023253  -0.021142   0.000058  -0.000067  -0.000026
     5  C    0.380143  -0.001918   0.001191   0.001145  -0.002651   0.001164
     6  C    0.001233   0.381986   0.382970   0.001074   0.000379  -0.000002
     7  C   -0.000699  -0.000040   0.001183   0.382195   0.380747   0.002657
     8  O   -0.001505   0.000000   0.000000  -0.000811  -0.000534   0.259209
     9  C   -0.024827   0.000125  -0.000012  -0.000012   0.000009  -0.000030
    10  C    0.001182  -0.000619   0.000007   0.000000   0.000000   0.000022
    11  C   -0.002645  -0.000003   0.000000   0.000000   0.000000  -0.001281
    12  H    0.000000   0.000336   0.000011   0.000034   0.000001   0.000001
    13  H    0.000000   0.000065  -0.000020   0.000066   0.000049   0.000000
    14  H    0.000000  -0.000104   0.000170   0.000081  -0.000038   0.000000
    15  H   -0.000001   0.001880  -0.005294   0.000585  -0.006610   0.000001
    16  H    0.001775  -0.000476   0.000003  -0.002187   0.001987  -0.008868
    17  H    0.000763  -0.002078  -0.002405   0.000000   0.000002   0.000001
    18  H   -0.007262   0.002044  -0.002268   0.000005  -0.000350   0.000000
    19  H    0.646745  -0.000002  -0.000034  -0.000019   0.000270   0.000082
    20  H   -0.000002   0.645843  -0.023994  -0.000015  -0.000024   0.000001
    21  H   -0.000034  -0.023994   0.640655  -0.000026  -0.000020   0.000000
    22  H   -0.000019  -0.000015  -0.000026   0.631109  -0.024505   0.000077
    23  H    0.000270  -0.000024  -0.000020  -0.024505   0.640246   0.000009
    24  H    0.000082   0.000001   0.000000   0.000077   0.000009   0.608967
    25  H   -0.002784   0.000010  -0.000001   0.000000  -0.000001   0.000003
    26  H   -0.000002  -0.000090   0.000001   0.000001   0.000000   0.000008
    27  H    0.000014  -0.000479   0.000023   0.000000   0.000000   0.000000
    28  H   -0.000031   0.000011   0.000000   0.000000   0.000000  -0.000001
    29  H    0.000006   0.000000   0.000000   0.000000   0.000000  -0.000621
    30  H    0.000258   0.000000   0.000000   0.000000   0.000000  -0.000226
    31  H    0.000028   0.000000   0.000000   0.000000   0.000000   0.000018
             25         26         27         28         29         30
     1  C    0.000000   0.000000   0.000000   0.000000   0.000000   0.000000
     2  C   -0.000001   0.000002   0.000004   0.000000   0.000000   0.000000
     3  C    0.001057  -0.000575   0.000033   0.000014   0.000119  -0.000003
     4  C   -0.002938   0.000027  -0.000337   0.000010  -0.000005   0.000020
     5  C   -0.023314  -0.001593  -0.001412   0.001103  -0.000845  -0.002738
     6  C    0.000022  -0.000045  -0.000738   0.000009   0.000000   0.000000
     7  C   -0.000014  -0.000006  -0.000002   0.000000  -0.000001  -0.000002
     8  O   -0.000011   0.000003   0.000000   0.000000  -0.000906  -0.000040
     9  C    0.381993  -0.020486  -0.019744  -0.019822  -0.020773  -0.019933
    10  C   -0.024837   0.382001   0.382924   0.382236  -0.003054   0.001316
    11  C   -0.025281  -0.001957   0.001347  -0.002828   0.381603   0.382892
    12  H    0.000000   0.000000   0.000000   0.000000   0.000000   0.000000
    13  H    0.000000   0.000000   0.000000   0.000000   0.000000   0.000000
    14  H    0.000000   0.000000   0.000000   0.000000   0.000000   0.000000
    15  H    0.000000   0.000000   0.000000   0.000000   0.000000   0.000000
    16  H    0.000012  -0.000450   0.000031  -0.000014   0.000009   0.000018
    17  H    0.000030   0.000026  -0.000205  -0.000021   0.000000   0.000003
    18  H    0.000059  -0.000003   0.000005   0.000000   0.000000  -0.000001
    19  H   -0.002784  -0.000002   0.000014  -0.000031   0.000006   0.000258
    20  H    0.000010  -0.000090  -0.000479   0.000011   0.000000   0.000000
    21  H   -0.000001   0.000001   0.000023   0.000000   0.000000   0.000000
    22  H    0.000000   0.000001   0.000000   0.000000   0.000000   0.000000
    23  H   -0.000001   0.000000   0.000000   0.000000   0.000000   0.000000
    24  H    0.000003   0.000008   0.000000  -0.000001  -0.000621  -0.000226
    25  H    0.653966   0.001926  -0.002594  -0.002268   0.001985  -0.001383
    26  H    0.001926   0.634958  -0.021751  -0.022045   0.000396   0.000005
    27  H   -0.002594  -0.021751   0.629291  -0.022097   0.000024  -0.000037
    28  H   -0.002268  -0.022045  -0.022097   0.630683  -0.000055   0.000038
    29  H    0.001985   0.000396   0.000024  -0.000055   0.642668  -0.021452
    30  H   -0.001383   0.000005  -0.000037   0.000038  -0.021452   0.622560
    31  H   -0.003905  -0.000005   0.000014   0.000104  -0.022576  -0.021545
             31
     1  C    0.000000
     2  C    0.000000
     3  C   -0.000004
     4  C   -0.000014
     5  C    0.001134
     6  C    0.000000
     7  C    0.000000
     8  O    0.000013
     9  C   -0.019972
    10  C   -0.001654
    11  C    0.382267
    12  H    0.000000
    13  H    0.000000
    14  H    0.000000
    15  H    0.000000
    16  H   -0.000006
    17  H   -0.000003
    18  H    0.000000
    19  H    0.000028
    20  H    0.000000
    21  H    0.000000
    22  H    0.000000
    23  H    0.000000
    24  H    0.000018
    25  H   -0.003905
    26  H   -0.000005
    27  H    0.000014
    28  H    0.000104
    29  H   -0.022576
    30  H   -0.021545
    31  H    0.631272
 Mulliken atomic charges:
              1
     1  C   -0.170741
     2  C   -0.025254
     3  C    0.075999
     4  C   -0.102548
     5  C   -0.040228
     6  C   -0.102249
     7  C   -0.107103
     8  O   -0.314569
     9  C   -0.020543
    10  C   -0.177143
    11  C   -0.174087
    12  H    0.050282
    13  H    0.053740
    14  H    0.053385
    15  H    0.048641
    16  H    0.040132
    17  H    0.050945
    18  H    0.048791
    19  H    0.054850
    20  H    0.048058
    21  H    0.050673
    22  H    0.057529
    23  H    0.054589
    24  H    0.179701
    25  H    0.048271
    26  H    0.049653
    27  H    0.055687
    28  H    0.054975
    29  H    0.043478
    30  H    0.060253
    31  H    0.054834
 Sum of Mulliken atomic charges =   0.00000
 Mulliken charges with hydrogens summed into heavy atoms:
              1
     1  C   -0.013334
     2  C    0.023386
     3  C    0.116130
     4  C   -0.002812
     5  C    0.014622
     6  C   -0.003518
     7  C    0.005015
     8  O   -0.134869
     9  C    0.027728
    10  C   -0.016827
    11  C   -0.015522
 Sum of Mulliken charges with hydrogens summed into heavy atoms =   0.00000
 Electronic spatial extent (au):  <R**2>=           2025.9474
 Charge=              0.0000 electrons
 Dipole moment (field-independent basis, Debye):
    X=              0.2433    Y=             -1.0341    Z=              0.8169  Tot=              1.3401
 Quadrupole moment (field-independent basis, Debye-Ang):
   XX=            -66.5364   YY=            -71.3389   ZZ=            -66.5266
   XY=              0.0708   XZ=              1.4835   YZ=              2.6154
 Traceless Quadrupole moment (field-independent basis, Debye-Ang):
   XX=              1.5975   YY=             -3.2049   ZZ=              1.6074
   XY=              0.0708   XZ=              1.4835   YZ=              2.6154
 Octapole moment (field-independent basis, Debye-Ang**2):
  XXX=              6.5513  YYY=              1.6426  ZZZ=             -0.6772  XYY=              1.3895
  XXY=              5.2053  XXZ=             -0.7458  XZZ=              2.6045  YZZ=              7.5958
  YYZ=              5.3798  XYZ=              2.5955
 Hexadecapole moment (field-independent basis, Debye-Ang**3):
 XXXX=          -1615.4827 YYYY=           -646.2327 ZZZZ=           -332.7041 XXXY=              2.7134
 XXXZ=              8.2174 YYYX=             10.9701 YYYZ=             17.2113 ZZZX=              3.5942
 ZZZY=              1.6627 XXYY=           -361.3369 XXZZ=           -327.1808 YYZZ=           -156.0207
 XXYZ=              3.3338 YYXZ=              5.2881 ZZXY=              5.8569
 N-N= 6.983042713702D+02 E-N=-2.468610767161D+03  KE= 4.555650636166D+02
 ******************************Gaussian NBO Version 3.1******************************
             N A T U R A L   A T O M I C   O R B I T A L   A N D
          N A T U R A L   B O N D   O R B I T A L   A N A L Y S I S
 ******************************Gaussian NBO Version 3.1******************************
       /RESON  / : Allow strongly delocalized NBO set
       /NLMO   / : Form Natural Localized Molecular Orbitals
       /NMR /    : Analyze NMR Sheilding Tensor 

 Analyzing the SCF density

 Job title: comment                                                         

 Storage needed:     19864 in NPA,     23691 in NBO,     45933 in NLMO (  33549317 available)


 NATURAL POPULATIONS:  Natural atomic orbital occupancies 
                                                          
   NAO  Atom  No  lang   Type(AO)    Occupancy      Energy
 ----------------------------------------------------------
     1    C    1  S      Cor( 1S)     1.99998     -10.96448
     2    C    1  S      Val( 2S)     1.08064      -0.18171
     3    C    1  px     Val( 2p)     1.01642       0.08523
     4    C    1  py     Val( 2p)     1.02831       0.08437
     5    C    1  pz     Val( 2p)     1.00015       0.08888

     6    C    2  S      Cor( 1S)     1.99997     -10.98735
     7    C    2  S      Val( 2S)     1.08073      -0.19111
     8    C    2  px     Val( 2p)     0.97299       0.10580
     9    C    2  py     Val( 2p)     0.95443       0.11405
    10    C    2  pz     Val( 2p)     0.97874       0.10614

    11    C    3  S      Cor( 1S)     1.99989     -11.03346
    12    C    3  S      Val( 2S)     1.08697      -0.21494
    13    C    3  px     Val( 2p)     0.94057       0.08982
    14    C    3  py     Val( 2p)     0.84581       0.12192
    15    C    3  pz     Val( 2p)     0.98285       0.09246

    16    C    4  S      Cor( 1S)     1.99996     -10.97361
    17    C    4  S      Val( 2S)     1.08635      -0.18963
    18    C    4  px     Val( 2p)     0.98392       0.09828
    19    C    4  py     Val( 2p)     0.99540       0.09820
    20    C    4  pz     Val( 2p)     0.99903       0.09411

    21    C    5  S      Cor( 1S)     1.99995     -10.98493
    22    C    5  S      Val( 2S)     1.10685      -0.21151
    23    C    5  px     Val( 2p)     0.95708       0.11069
    24    C    5  py     Val( 2p)     0.96707       0.10763
    25    C    5  pz     Val( 2p)     0.98877       0.09823

    26    C    6  S      Cor( 1S)     1.99996     -10.97320
    27    C    6  S      Val( 2S)     1.08326      -0.18679
    28    C    6  px     Val( 2p)     0.98622       0.09790
    29    C    6  py     Val( 2p)     0.98940       0.09583
    30    C    6  pz     Val( 2p)     1.00614       0.09516

    31    C    7  S      Cor( 1S)     1.99996     -10.97059
    32    C    7  S      Val( 2S)     1.09158      -0.19180
    33    C    7  px     Val( 2p)     0.97789       0.09812
    34    C    7  py     Val( 2p)     0.98817       0.10202
    35    C    7  pz     Val( 2p)     1.02674       0.08743

    36    O    8  S      Cor( 1S)     1.99999     -20.13819
    37    O    8  S      Val( 2S)     1.74942      -0.99651
    38    O    8  px     Val( 2p)     1.57509      -0.20384
    39    O    8  py     Val( 2p)     1.42552      -0.14503
    40    O    8  pz     Val( 2p)     1.58624      -0.21802

    41    C    9  S      Cor( 1S)     1.99996     -10.99203
    42    C    9  S      Val( 2S)     1.08676      -0.19891
    43    C    9  px     Val( 2p)     0.95815       0.10750
    44    C    9  py     Val( 2p)     0.96562       0.10588
    45    C    9  pz     Val( 2p)     0.96954       0.10832

    46    C   10  S      Cor( 1S)     1.99997     -10.96683
    47    C   10  S      Val( 2S)     1.07982      -0.18408
    48    C   10  px     Val( 2p)     1.03110       0.07865
    49    C   10  py     Val( 2p)     1.01812       0.08223
    50    C   10  pz     Val( 2p)     1.00430       0.08525

    51    C   11  S      Cor( 1S)     1.99997     -10.96707
    52    C   11  S      Val( 2S)     1.08098      -0.18449
    53    C   11  px     Val( 2p)     1.01239       0.08031
    54    C   11  py     Val( 2p)     1.01296       0.08250
    55    C   11  pz     Val( 2p)     1.02358       0.08504

    56    H   12  S      Val( 1S)     0.96688       0.07185

    57    H   13  S      Val( 1S)     0.96371       0.07550

    58    H   14  S      Val( 1S)     0.96399       0.07433

    59    H   15  S      Val( 1S)     0.97560       0.06867

    60    H   16  S      Val( 1S)     0.99427       0.04409

    61    H   17  S      Val( 1S)     0.96998       0.07175

    62    H   18  S      Val( 1S)     0.97218       0.07133

    63    H   19  S      Val( 1S)     0.97089       0.07383

    64    H   20  S      Val( 1S)     0.97284       0.07140

    65    H   21  S      Val( 1S)     0.96972       0.07088

    66    H   22  S      Val( 1S)     0.96332       0.07847

    67    H   23  S      Val( 1S)     0.96618       0.07802

    68    H   24  S      Val( 1S)     0.80797       0.08216

    69    H   25  S      Val( 1S)     0.97689       0.06517

    70    H   26  S      Val( 1S)     0.96727       0.06973

    71    H   27  S      Val( 1S)     0.96181       0.07566

    72    H   28  S      Val( 1S)     0.96196       0.07224

    73    H   29  S      Val( 1S)     0.97294       0.06595

    74    H   30  S      Val( 1S)     0.95769       0.07833

    75    H   31  S      Val( 1S)     0.96231       0.07261


 Summary of Natural Population Analysis:                  
                                                          
                                       Natural Population 
                Natural  -----------------------------------------------
    Atom  No    Charge         Core      Valence    Rydberg      Total
 -----------------------------------------------------------------------
      C    1   -0.12549      1.99998     4.12551    0.00000     6.12549
      C    2    0.01315      1.99997     3.98689    0.00000     5.98685
      C    3    0.14391      1.99989     3.85620    0.00000     5.85609
      C    4   -0.06466      1.99996     4.06470    0.00000     6.06466
      C    5   -0.01971      1.99995     4.01976    0.00000     6.01971
      C    6   -0.06499      1.99996     4.06502    0.00000     6.06499
      C    7   -0.08434      1.99996     4.08438    0.00000     6.08434
      O    8   -0.33625      1.99999     6.33626    0.00000     8.33625
      C    9    0.01997      1.99996     3.98007    0.00000     5.98003
      C   10   -0.13331      1.99997     4.13334    0.00000     6.13331
      C   11   -0.12988      1.99997     4.12991    0.00000     6.12988
      H   12    0.03312      0.00000     0.96688    0.00000     0.96688
      H   13    0.03629      0.00000     0.96371    0.00000     0.96371
      H   14    0.03601      0.00000     0.96399    0.00000     0.96399
      H   15    0.02440      0.00000     0.97560    0.00000     0.97560
      H   16    0.00573      0.00000     0.99427    0.00000     0.99427
      H   17    0.03002      0.00000     0.96998    0.00000     0.96998
      H   18    0.02782      0.00000     0.97218    0.00000     0.97218
      H   19    0.02911      0.00000     0.97089    0.00000     0.97089
      H   20    0.02716      0.00000     0.97284    0.00000     0.97284
      H   21    0.03028      0.00000     0.96972    0.00000     0.96972
      H   22    0.03668      0.00000     0.96332    0.00000     0.96332
      H   23    0.03382      0.00000     0.96618    0.00000     0.96618
      H   24    0.19203      0.00000     0.80797    0.00000     0.80797
      H   25    0.02311      0.00000     0.97689    0.00000     0.97689
      H   26    0.03273      0.00000     0.96727    0.00000     0.96727
      H   27    0.03819      0.00000     0.96181    0.00000     0.96181
      H   28    0.03804      0.00000     0.96196    0.00000     0.96196
      H   29    0.02706      0.00000     0.97294    0.00000     0.97294
      H   30    0.04231      0.00000     0.95769    0.00000     0.95769
      H   31    0.03769      0.00000     0.96231    0.00000     0.96231
 =======================================================================
   * Total *    0.00000     21.99955    66.00045    0.00000    88.00000

                                 Natural Population      
 --------------------------------------------------------
   Core                      21.99955 ( 99.9980% of  22)
   Valence                   66.00045 (100.0007% of  66)
   Natural Minimal Basis     88.00000 (100.0000% of  88)
   Natural Rydberg Basis      0.00000 (  0.0000% of  88)
 --------------------------------------------------------

    Atom  No          Natural Electron Configuration
 ----------------------------------------------------------------------------
      C    1      [core]2S( 1.08)2p( 3.04)
      C    2      [core]2S( 1.08)2p( 2.91)
      C    3      [core]2S( 1.09)2p( 2.77)
      C    4      [core]2S( 1.09)2p( 2.98)
      C    5      [core]2S( 1.11)2p( 2.91)
      C    6      [core]2S( 1.08)2p( 2.98)
      C    7      [core]2S( 1.09)2p( 2.99)
      O    8      [core]2S( 1.75)2p( 4.59)
      C    9      [core]2S( 1.09)2p( 2.89)
      C   10      [core]2S( 1.08)2p( 3.05)
      C   11      [core]2S( 1.08)2p( 3.05)
      H   12            1S( 0.97)
      H   13            1S( 0.96)
      H   14            1S( 0.96)
      H   15            1S( 0.98)
      H   16            1S( 0.99)
      H   17            1S( 0.97)
      H   18            1S( 0.97)
      H   19            1S( 0.97)
      H   20            1S( 0.97)
      H   21            1S( 0.97)
      H   22            1S( 0.96)
      H   23            1S( 0.97)
      H   24            1S( 0.81)
      H   25            1S( 0.98)
      H   26            1S( 0.97)
      H   27            1S( 0.96)
      H   28            1S( 0.96)
      H   29            1S( 0.97)
      H   30            1S( 0.96)
      H   31            1S( 0.96)


 NATURAL BOND ORBITAL ANALYSIS:

                       Occupancies       Lewis Structure    Low   High
           Occ.    -------------------  -----------------   occ   occ
  Cycle   Thresh.   Lewis   Non-Lewis     CR  BD  3C  LP    (L)   (NL)   Dev
 =============================================================================
   1(1)    1.90    87.64417   0.35583     11  31   0   2     0      0    0.02
 -----------------------------------------------------------------------------

 Structure accepted: No low occupancy Lewis orbitals

 --------------------------------------------------------
   Core                     21.99955 ( 99.998% of  22)
   Valence Lewis            65.64463 ( 99.462% of  66)
  ==================       ============================
   Total Lewis              87.64417 ( 99.596% of  88)
  -----------------------------------------------------
   Valence non-Lewis         0.35583 (  0.404% of  88)
   Rydberg non-Lewis         0.00000 (  0.000% of  88)
  ==================       ============================
   Total non-Lewis           0.35583 (  0.404% of  88)
 --------------------------------------------------------


       (Occupancy)   Bond orbital/ Coefficients/ Hybrids
 ---------------------------------------------------------------------------------
     1. (1.99031) BD ( 1) C   1 - C   2  
                ( 50.94%)   0.7137* C   1 s( 25.74%)p 2.89( 74.26%)
                                            0.0001  0.5073  0.4651  0.0072 -0.7254
                ( 49.06%)   0.7004* C   2 s( 24.89%)p 3.02( 75.11%)
                                            0.0000  0.4989 -0.4420 -0.0029  0.7455
     2. (1.99520) BD ( 1) C   1 - H  12  
                ( 51.69%)   0.7190* C   1 s( 24.80%)p 3.03( 75.20%)
                                            0.0000  0.4980  0.5280  0.0331  0.6871
                ( 48.31%)   0.6950* H  12 s(100.00%)
                                            1.0000
     3. (1.99494) BD ( 1) C   1 - H  13  
                ( 51.83%)   0.7199* C   1 s( 24.71%)p 3.05( 75.29%)
                                            0.0000  0.4971 -0.5306  0.6864  0.0143
                ( 48.17%)   0.6941* H  13 s(100.00%)
                                            1.0000
     4. (1.99510) BD ( 1) C   1 - H  14  
                ( 51.82%)   0.7198* C   1 s( 24.75%)p 3.04( 75.25%)
                                            0.0000  0.4975 -0.4727 -0.7264  0.0376
                ( 48.18%)   0.6942* H  14 s(100.00%)
                                            1.0000
     5. (1.98510) BD ( 1) C   2 - C   6  
                ( 49.69%)   0.7049* C   2 s( 25.29%)p 2.95( 74.71%)
                                            0.0000  0.5029  0.5007 -0.7032 -0.0425
                ( 50.31%)   0.7093* C   6 s( 25.32%)p 2.95( 74.68%)
                                            0.0001  0.5032 -0.4670  0.7255  0.0478
     6. (1.98384) BD ( 1) C   2 - C   7  
                ( 49.52%)   0.7037* C   2 s( 25.29%)p 2.95( 74.71%)
                                            0.0000  0.5029  0.4896  0.7109 -0.0435
                ( 50.48%)   0.7105* C   7 s( 25.70%)p 2.89( 74.30%)
                                            0.0001  0.5069 -0.4571 -0.7258  0.0853
     7. (1.98625) BD ( 1) C   2 - H  15  
                ( 51.14%)   0.7151* C   2 s( 24.52%)p 3.08( 75.48%)
                                            0.0000  0.4952 -0.5605 -0.0049 -0.6638
                ( 48.86%)   0.6990* H  15 s(100.00%)
                                            1.0000
     8. (1.98355) BD ( 1) C   3 - C   5  
                ( 49.99%)   0.7070* C   3 s( 26.21%)p 2.82( 73.79%)
                                            0.0000  0.5119  0.4089 -0.5791 -0.4851
                ( 50.01%)   0.7072* C   5 s( 25.68%)p 2.89( 74.32%)
                                            0.0000  0.5068 -0.4023  0.5545  0.5233
     9. (1.98713) BD ( 1) C   3 - C   7  
                ( 49.86%)   0.7061* C   3 s( 25.93%)p 2.86( 74.07%)
                                            0.0000  0.5092 -0.8081  0.1100 -0.2750
                ( 50.14%)   0.7081* C   7 s( 25.09%)p 2.99( 74.91%)
                                            0.0001  0.5009  0.8116 -0.1294  0.2713
    10. (1.98846) BD ( 1) C   3 - O   8  
                ( 41.16%)   0.6416* C   3 s( 22.34%)p 3.48( 77.66%)
                                           -0.0001  0.4727  0.4241  0.7699 -0.0629
                ( 58.84%)   0.7671* O   8 s( 16.26%)p 5.15( 83.74%)
                                            0.0000  0.4033 -0.3723 -0.8268  0.1231
    11. (1.98814) BD ( 1) C   3 - H  16  
                ( 50.51%)   0.7107* C   3 s( 25.52%)p 2.92( 74.48%)
                                            0.0000  0.5052  0.0034 -0.2444  0.8277
                ( 49.49%)   0.7035* H  16 s(100.00%)
                                            1.0000
    12. (1.98342) BD ( 1) C   4 - C   5  
                ( 50.44%)   0.7102* C   4 s( 25.39%)p 2.94( 74.61%)
                                            0.0001  0.5039  0.5284  0.6163  0.2951
                ( 49.56%)   0.7040* C   5 s( 25.17%)p 2.97( 74.83%)
                                            0.0000  0.5017 -0.5391 -0.6383 -0.2240
    13. (1.99052) BD ( 1) C   4 - C   6  
                ( 49.96%)   0.7068* C   4 s( 25.30%)p 2.95( 74.70%)
                                            0.0000  0.5030 -0.6654 -0.1004  0.5424
                ( 50.04%)   0.7074* C   6 s( 25.24%)p 2.96( 74.76%)
                                            0.0000  0.5024  0.6754  0.1210 -0.5262
    14. (1.98975) BD ( 1) C   4 - H  17  
                ( 51.49%)   0.7176* C   4 s( 25.16%)p 2.98( 74.84%)
                                            0.0000  0.5016  0.4323 -0.7458 -0.0729
                ( 48.51%)   0.6965* H  17 s(100.00%)
                                            1.0000
    15. (1.99111) BD ( 1) C   4 - H  18  
                ( 51.38%)   0.7168* C   4 s( 24.15%)p 3.14( 75.85%)
                                            0.0000  0.4915 -0.3019  0.2320 -0.7832
                ( 48.62%)   0.6973* H  18 s(100.00%)
                                            1.0000
    16. (1.98024) BD ( 1) C   5 - C   9  
                ( 49.74%)   0.7052* C   5 s( 25.06%)p 2.99( 74.94%)
                                            0.0001  0.5006  0.6927 -0.3318  0.3993
                ( 50.26%)   0.7090* C   9 s( 25.53%)p 2.92( 74.47%)
                                            0.0001  0.5053 -0.7330  0.3462 -0.2959
    17. (1.98357) BD ( 1) C   5 - H  19  
                ( 51.31%)   0.7163* C   5 s( 24.08%)p 3.15( 75.92%)
                                            0.0000  0.4908  0.2600  0.4184 -0.7187
                ( 48.69%)   0.6978* H  19 s(100.00%)
                                            1.0000
    18. (1.99052) BD ( 1) C   6 - H  20  
                ( 51.41%)   0.7170* C   6 s( 24.67%)p 3.05( 75.33%)
                                            0.0000  0.4967  0.2854 -0.2130  0.7915
                ( 48.59%)   0.6971* H  20 s(100.00%)
                                            1.0000
    19. (1.99021) BD ( 1) C   6 - H  21  
                ( 51.47%)   0.7174* C   6 s( 24.77%)p 3.04( 75.23%)
                                            0.0000  0.4977 -0.4943 -0.6431 -0.3071
                ( 48.53%)   0.6966* H  21 s(100.00%)
                                            1.0000
    20. (1.98938) BD ( 1) C   7 - H  22  
                ( 51.81%)   0.7198* C   7 s( 25.19%)p 2.97( 74.81%)
                                            0.0000  0.5019 -0.3634  0.6338  0.4629
                ( 48.19%)   0.6942* H  22 s(100.00%)
                                            1.0000
    21. (1.99031) BD ( 1) C   7 - H  23  
                ( 51.67%)   0.7188* C   7 s( 24.02%)p 3.16( 75.98%)
                                            0.0000  0.4901  0.0154  0.2339 -0.8396
                ( 48.33%)   0.6952* H  23 s(100.00%)
                                            1.0000
    22. (1.99035) BD ( 1) O   8 - H  24  
                ( 59.65%)   0.7723* O   8 s( 16.93%)p 4.91( 83.07%)
                                            0.0000  0.4115  0.5739  0.0475  0.7065
                ( 40.35%)   0.6352* H  24 s(100.00%)
                                            1.0000
    23. (1.99031) BD ( 1) C   9 - C  10  
                ( 48.87%)   0.6991* C   9 s( 25.20%)p 2.97( 74.80%)
                                            0.0000  0.5020 -0.1585 -0.4535  0.7192
                ( 51.13%)   0.7151* C  10 s( 25.88%)p 2.86( 74.12%)
                                            0.0001  0.5087  0.1148  0.4787 -0.7063
    24. (1.98969) BD ( 1) C   9 - C  11  
                ( 48.89%)   0.6992* C   9 s( 25.11%)p 2.98( 74.89%)
                                            0.0000  0.5011  0.5721  0.6264  0.1713
                ( 51.11%)   0.7149* C  11 s( 25.81%)p 2.87( 74.19%)
                                            0.0001  0.5080 -0.6109 -0.5867 -0.1565
    25. (1.98346) BD ( 1) C   9 - H  25  
                ( 51.02%)   0.7143* C   9 s( 24.17%)p 3.14( 75.83%)
                                            0.0000  0.4916  0.3321 -0.5312 -0.6049
                ( 48.98%)   0.6999* H  25 s(100.00%)
                                            1.0000
    26. (1.99463) BD ( 1) C  10 - H  26  
                ( 51.68%)   0.7189* C  10 s( 24.85%)p 3.02( 75.15%)
                                            0.0000  0.4985 -0.3520  0.4821  0.6286
                ( 48.32%)   0.6951* H  26 s(100.00%)
                                            1.0000
    27. (1.99451) BD ( 1) C  10 - H  27  
                ( 51.93%)   0.7207* C  10 s( 24.78%)p 3.04( 75.22%)
                                            0.0000  0.4977 -0.5260 -0.6661 -0.1784
                ( 48.07%)   0.6933* H  27 s(100.00%)
                                            1.0000
    28. (1.99420) BD ( 1) C  10 - H  28  
                ( 51.89%)   0.7204* C  10 s( 24.49%)p 3.08( 75.51%)
                                            0.0000  0.4949  0.7657 -0.3078  0.2723
                ( 48.11%)   0.6936* H  28 s(100.00%)
                                            1.0000
    29. (1.99366) BD ( 1) C  11 - H  29  
                ( 51.38%)   0.7168* C  11 s( 24.78%)p 3.04( 75.22%)
                                            0.0000  0.4978 -0.2151  0.4692  0.6969
                ( 48.62%)   0.6973* H  29 s(100.00%)
                                            1.0000
    30. (1.99509) BD ( 1) C  11 - H  30  
                ( 52.14%)   0.7221* C  11 s( 24.94%)p 3.01( 75.06%)
                                            0.0000  0.4994  0.0862  0.5251 -0.6837
                ( 47.86%)   0.6918* H  30 s(100.00%)
                                            1.0000
    31. (1.99442) BD ( 1) C  11 - H  31  
                ( 51.88%)   0.7202* C  11 s( 24.47%)p 3.09( 75.53%)
                                            0.0000  0.4946  0.7570 -0.3999  0.1496
                ( 48.12%)   0.6937* H  31 s(100.00%)
                                            1.0000
    32. (1.99997) CR ( 1) C   1           s(100.00%)
                                            1.0000  0.0000  0.0000  0.0000  0.0001
    33. (1.99997) CR ( 1) C   2           s(100.00%)
                                            1.0000  0.0000 -0.0001  0.0000  0.0000
    34. (1.99989) CR ( 1) C   3           s(100.00%)
                                            1.0000  0.0000  0.0000  0.0001  0.0000
    35. (1.99996) CR ( 1) C   4           s(100.00%)
                                            1.0000  0.0000  0.0000  0.0000 -0.0001
    36. (1.99995) CR ( 1) C   5           s(100.00%)
                                            1.0000  0.0000  0.0000  0.0000 -0.0001
    37. (1.99996) CR ( 1) C   6           s(100.00%)
                                            1.0000  0.0000  0.0000 -0.0001  0.0000
    38. (1.99996) CR ( 1) C   7           s(100.00%)
                                            1.0000 -0.0001  0.0000  0.0001  0.0000
    39. (1.99999) CR ( 1) O   8           s(100.00%)
                                            1.0000  0.0000  0.0000  0.0000  0.0000
    40. (1.99996) CR ( 1) C   9           s(100.00%)
                                            1.0000  0.0000  0.0001  0.0000  0.0000
    41. (1.99997) CR ( 1) C  10           s(100.00%)
                                            1.0000  0.0000  0.0000 -0.0001  0.0001
    42. (1.99997) CR ( 1) C  11           s(100.00%)
                                            1.0000  0.0000  0.0001  0.0000  0.0000
    43. (1.99351) LP ( 1) O   8           s( 66.59%)p 0.50( 33.41%)
                                            0.0000  0.8160 -0.0637  0.3601 -0.4477
    44. (1.97378) LP ( 2) O   8           s(  0.22%)p99.99( 99.78%)
                                            0.0000  0.0467 -0.7266  0.4296  0.5341
    45. (0.00974) BD*( 1) C   1 - C   2  
                ( 49.06%)   0.7004* C   1 s( 25.74%)p 2.89( 74.26%)
                                           -0.0001 -0.5073 -0.4651 -0.0072  0.7254
                ( 50.94%)  -0.7137* C   2 s( 24.89%)p 3.02( 75.11%)
                                            0.0000 -0.4989  0.4420  0.0029 -0.7455
    46. (0.00592) BD*( 1) C   1 - H  12  
                ( 48.31%)   0.6950* C   1 s( 24.80%)p 3.03( 75.20%)
                                            0.0000 -0.4980 -0.5280 -0.0331 -0.6871
                ( 51.69%)  -0.7190* H  12 s(100.00%)
                                           -1.0000
    47. (0.00511) BD*( 1) C   1 - H  13  
                ( 48.17%)   0.6941* C   1 s( 24.71%)p 3.05( 75.29%)
                                            0.0000 -0.4971  0.5306 -0.6864 -0.0143
                ( 51.83%)  -0.7199* H  13 s(100.00%)
                                           -1.0000
    48. (0.00513) BD*( 1) C   1 - H  14  
                ( 48.18%)   0.6942* C   1 s( 24.75%)p 3.04( 75.25%)
                                            0.0000 -0.4975  0.4727  0.7264 -0.0376
                ( 51.82%)  -0.7198* H  14 s(100.00%)
                                           -1.0000
    49. (0.01602) BD*( 1) C   2 - C   6  
                ( 50.31%)   0.7093* C   2 s( 25.29%)p 2.95( 74.71%)
                                            0.0000  0.5029  0.5007 -0.7032 -0.0425
                ( 49.69%)  -0.7049* C   6 s( 25.32%)p 2.95( 74.68%)
                                            0.0001  0.5032 -0.4670  0.7255  0.0478
    50. (0.01571) BD*( 1) C   2 - C   7  
                ( 50.48%)   0.7105* C   2 s( 25.29%)p 2.95( 74.71%)
                                            0.0000  0.5029  0.4896  0.7109 -0.0435
                ( 49.52%)  -0.7037* C   7 s( 25.70%)p 2.89( 74.30%)
                                            0.0001  0.5069 -0.4571 -0.7258  0.0853
    51. (0.01006) BD*( 1) C   2 - H  15  
                ( 48.86%)   0.6990* C   2 s( 24.52%)p 3.08( 75.48%)
                                            0.0000 -0.4952  0.5605  0.0049  0.6638
                ( 51.14%)  -0.7151* H  15 s(100.00%)
                                           -1.0000
    52. (0.03502) BD*( 1) C   3 - C   5  
                ( 50.01%)   0.7072* C   3 s( 26.21%)p 2.82( 73.79%)
                                            0.0000  0.5119  0.4089 -0.5791 -0.4851
                ( 49.99%)  -0.7070* C   5 s( 25.68%)p 2.89( 74.32%)
                                            0.0000  0.5068 -0.4023  0.5545  0.5233
    53. (0.02281) BD*( 1) C   3 - C   7  
                ( 50.14%)   0.7081* C   3 s( 25.93%)p 2.86( 74.07%)
                                            0.0000  0.5092 -0.8081  0.1100 -0.2750
                ( 49.86%)  -0.7061* C   7 s( 25.09%)p 2.99( 74.91%)
                                            0.0001  0.5009  0.8116 -0.1294  0.2713
    54. (0.02070) BD*( 1) C   3 - O   8  
                ( 58.84%)   0.7671* C   3 s( 22.34%)p 3.48( 77.66%)
                                           -0.0001  0.4727  0.4241  0.7699 -0.0629
                ( 41.16%)  -0.6416* O   8 s( 16.26%)p 5.15( 83.74%)
                                            0.0000  0.4033 -0.3723 -0.8268  0.1231
    55. (0.02038) BD*( 1) C   3 - H  16  
                ( 49.49%)   0.7035* C   3 s( 25.52%)p 2.92( 74.48%)
                                            0.0000 -0.5052 -0.0034  0.2444 -0.8277
                ( 50.51%)  -0.7107* H  16 s(100.00%)
                                           -1.0000
    56. (0.01678) BD*( 1) C   4 - C   5  
                ( 49.56%)   0.7040* C   4 s( 25.39%)p 2.94( 74.61%)
                                           -0.0001 -0.5039 -0.5284 -0.6163 -0.2951
                ( 50.44%)  -0.7102* C   5 s( 25.17%)p 2.97( 74.83%)
                                            0.0000 -0.5017  0.5391  0.6383  0.2240
    57. (0.01103) BD*( 1) C   4 - C   6  
                ( 50.04%)   0.7074* C   4 s( 25.30%)p 2.95( 74.70%)
                                            0.0000  0.5030 -0.6654 -0.1004  0.5424
                ( 49.96%)  -0.7068* C   6 s( 25.24%)p 2.96( 74.76%)
                                            0.0000  0.5024  0.6754  0.1210 -0.5262
    58. (0.00929) BD*( 1) C   4 - H  17  
                ( 48.51%)   0.6965* C   4 s( 25.16%)p 2.98( 74.84%)
                                            0.0000 -0.5016 -0.4323  0.7458  0.0729
                ( 51.49%)  -0.7176* H  17 s(100.00%)
                                           -1.0000
    59. (0.00791) BD*( 1) C   4 - H  18  
                ( 48.62%)   0.6973* C   4 s( 24.15%)p 3.14( 75.85%)
                                            0.0000 -0.4915  0.3019 -0.2320  0.7832
                ( 51.38%)  -0.7168* H  18 s(100.00%)
                                           -1.0000
    60. (0.02242) BD*( 1) C   5 - C   9  
                ( 50.26%)   0.7090* C   5 s( 25.06%)p 2.99( 74.94%)
                                            0.0001  0.5006  0.6927 -0.3318  0.3993
                ( 49.74%)  -0.7052* C   9 s( 25.53%)p 2.92( 74.47%)
                                            0.0001  0.5053 -0.7330  0.3462 -0.2959
    61. (0.00999) BD*( 1) C   5 - H  19  
                ( 48.69%)   0.6978* C   5 s( 24.08%)p 3.15( 75.92%)
                                            0.0000 -0.4908 -0.2600 -0.4184  0.7187
                ( 51.31%)  -0.7163* H  19 s(100.00%)
                                           -1.0000
    62. (0.01098) BD*( 1) C   6 - H  20  
                ( 48.59%)   0.6971* C   6 s( 24.67%)p 3.05( 75.33%)
                                            0.0000 -0.4967 -0.2854  0.2130 -0.7915
                ( 51.41%)  -0.7170* H  20 s(100.00%)
                                           -1.0000
    63. (0.00764) BD*( 1) C   6 - H  21  
                ( 48.53%)   0.6966* C   6 s( 24.77%)p 3.04( 75.23%)
                                            0.0000 -0.4977  0.4943  0.6431  0.3071
                ( 51.47%)  -0.7174* H  21 s(100.00%)
                                           -1.0000
    64. (0.00909) BD*( 1) C   7 - H  22  
                ( 48.19%)   0.6942* C   7 s( 25.19%)p 2.97( 74.81%)
                                            0.0000 -0.5019  0.3634 -0.6338 -0.4629
                ( 51.81%)  -0.7198* H  22 s(100.00%)
                                           -1.0000
    65. (0.00831) BD*( 1) C   7 - H  23  
                ( 48.33%)   0.6952* C   7 s( 24.02%)p 3.16( 75.98%)
                                            0.0000 -0.4901 -0.0154 -0.2339  0.8396
                ( 51.67%)  -0.7188* H  23 s(100.00%)
                                           -1.0000
    66. (0.00804) BD*( 1) O   8 - H  24  
                ( 40.35%)   0.6352* O   8 s( 16.93%)p 4.91( 83.07%)
                                            0.0000 -0.4115 -0.5739 -0.0475 -0.7065
                ( 59.65%)  -0.7723* H  24 s(100.00%)
                                           -1.0000
    67. (0.01121) BD*( 1) C   9 - C  10  
                ( 51.13%)   0.7151* C   9 s( 25.20%)p 2.97( 74.80%)
                                            0.0000  0.5020 -0.1585 -0.4535  0.7192
                ( 48.87%)  -0.6991* C  10 s( 25.88%)p 2.86( 74.12%)
                                            0.0001  0.5087  0.1148  0.4787 -0.7063
    68. (0.01082) BD*( 1) C   9 - C  11  
                ( 51.11%)   0.7149* C   9 s( 25.11%)p 2.98( 74.89%)
                                            0.0000  0.5011  0.5721  0.6264  0.1713
                ( 48.89%)  -0.6992* C  11 s( 25.81%)p 2.87( 74.19%)
                                            0.0001  0.5080 -0.6109 -0.5867 -0.1565
    69. (0.01048) BD*( 1) C   9 - H  25  
                ( 48.98%)   0.6999* C   9 s( 24.17%)p 3.14( 75.83%)
                                            0.0000 -0.4916 -0.3321  0.5312  0.6049
                ( 51.02%)  -0.7143* H  25 s(100.00%)
                                           -1.0000
    70. (0.00679) BD*( 1) C  10 - H  26  
                ( 48.32%)   0.6951* C  10 s( 24.85%)p 3.02( 75.15%)
                                            0.0000 -0.4985  0.3520 -0.4821 -0.6286
                ( 51.68%)  -0.7189* H  26 s(100.00%)
                                           -1.0000
    71. (0.00604) BD*( 1) C  10 - H  27  
                ( 48.07%)   0.6933* C  10 s( 24.78%)p 3.04( 75.22%)
                                            0.0000 -0.4977  0.5260  0.6661  0.1784
                ( 51.93%)  -0.7207* H  27 s(100.00%)
                                           -1.0000
    72. (0.00503) BD*( 1) C  10 - H  28  
                ( 48.11%)   0.6936* C  10 s( 24.49%)p 3.08( 75.51%)
                                            0.0000 -0.4949 -0.7657  0.3078 -0.2723
[...]
   10      27.0634        9.7451      17.3183        16.5856      10.4778
   11      -0.8806       -1.3646       0.4840        -2.0908       1.2102
   17      -0.3909       -0.7757       0.3848        -1.3917       1.0008
   20      -0.1328       -0.6579       0.5251        -1.1188       0.9860
   22      22.9348       11.2905      11.6442         8.4162      14.5185
   29      -0.3023       -0.9825       0.6802        -1.0964       0.7940
   39     271.1804       -0.0068     271.1873        -0.0036     271.1840
   43      32.7925        0.3666      32.4259        -4.6682      37.4606
   44       7.0761      -31.1992      38.2753       -32.8411      39.9172
 Sum      359.3405      -13.5845     372.9250       -18.2087     377.5493

 Contributions to Isotropic shielding for atom    9 (   211.6211 ppm):
                         Standard Origin              Atomic Origin
 NLMO      Total    Paramagnetic  Diamagnetic   Paramagnetic  Diamagnetic
   14      -0.5005       -1.0116       0.5111        -1.4883       0.9878
   16       4.8702       -9.7426      14.6128        -3.0477       7.9179
   17       0.4370        0.0504       0.3866        -0.6150       1.0519
   23       0.0355       -6.8437       6.8792        -7.4078       7.4433
   24      -2.3300       -5.6269       3.2969        -9.7618       7.4318
   25       4.5088       -0.7471       5.2559        -6.3544      10.8632
   26       0.8605       -0.3100       1.1705        -0.1716       1.0322
   27       0.5702       -0.4719       1.0420        -0.4404       1.0106
   28       0.5832       -0.1296       0.7127        -0.4453       1.0285
   29       1.0022       -0.3481       1.3503        -0.0258       1.0281
   30       0.6896       -0.5907       1.2803        -0.3538       1.0434
   31       0.6062       -0.3255       0.9317        -0.4269       1.0331
   40     199.9279       -0.0025     199.9304         0.0028     199.9250
 Sum      211.2607      -26.0998     237.3605       -30.5361     241.7968

 Contributions to Isotropic shielding for atom   10 (   224.4955 ppm):
                         Standard Origin              Atomic Origin
 NLMO      Total    Paramagnetic  Diamagnetic   Paramagnetic  Diamagnetic
   23       3.7015       -8.7241      12.4256        -4.3470       8.0485
   24      -0.3378       -0.0925      -0.2453        -1.0101       0.6723
   26       7.2303       -5.5691      12.7994        -3.8444      11.0747
   27       6.6614       -4.4174      11.0788        -4.4817      11.1431
   28       6.0734        3.1381       2.9353        -5.0345      11.1080
   41     200.0744       -0.0019     200.0763         0.0013     200.0731
 Sum      223.4032      -15.6669     239.0701       -18.7164     242.1196

 Contributions to Isotropic shielding for atom   11 (   220.7825 ppm):
                         Standard Origin              Atomic Origin
 NLMO      Total    Paramagnetic  Diamagnetic   Paramagnetic  Diamagnetic
   10      -0.0405       -0.0488       0.0083        -1.0648       1.0243
   23      -0.5026       -0.0854      -0.4172        -1.1938       0.6912
   24       4.1869      -11.2500      15.4369        -3.8459       8.0328
   25       0.2849        0.1956       0.0894        -0.7553       1.0402
   28      -0.1100       -0.4670       0.3570        -1.0445       0.9345
   29       6.4816       -4.9563      11.4380        -4.4781      10.9597
   30       5.3184       -3.8053       9.1237        -5.9162      11.2347
   31       4.8175        2.3998       2.4177        -6.2827      11.1002
   42     200.0775       -0.0033     200.0808         0.0020     200.0754
 Sum      220.5138      -18.0207     238.5345       -24.5793     245.0931

 Contributions to Isotropic shielding for atom   12 (    32.7037 ppm):
                         Standard Origin              Atomic Origin
 NLMO      Total    Paramagnetic  Diamagnetic   Paramagnetic  Diamagnetic
    1       1.7125       -1.4187       3.1311         0.8263       0.8862
    2      26.3676        0.3899      25.9777         0.3849      25.9827
    3       1.9420        1.2505       0.6915         0.1216       1.8204
    4       1.9665        1.2620       0.7045         0.1473       1.8192
 Sum       31.9886        1.4838      30.5048         1.4801      30.5085

 Contributions to Isotropic shielding for atom   13 (    32.4664 ppm):
                         Standard Origin              Atomic Origin
 NLMO      Total    Paramagnetic  Diamagnetic   Paramagnetic  Diamagnetic
    1       1.3230       -0.0005       1.3235         0.3446       0.9784
    2       2.0160        0.8615       1.1545         0.1776       1.8384
    3      26.3848        0.1381      26.2466         0.4657      25.9191
    4       1.9026        2.4403      -0.5377         0.0575       1.8452
    6      -0.1198        0.4306      -0.5504        -1.0096       0.8898
 Sum       31.5066        3.8701      27.6365         0.0358      31.4708

 Contributions to Isotropic shielding for atom   14 (    32.4789 ppm):
                         Standard Origin              Atomic Origin
 NLMO      Total    Paramagnetic  Diamagnetic   Paramagnetic  Diamagnetic
    1       1.3190       -0.0093       1.3283         0.3261       0.9929
    2       2.0389        0.8620       1.1769         0.2097       1.8292
    3       1.8377        2.3897      -0.5519         0.0038       1.8339
    4      26.3674        0.1276      26.2399         0.4447      25.9228
    5      -0.1102        0.4826      -0.5928        -1.0821       0.9719
 Sum       31.4529        3.8526      27.6003        -0.0978      31.5507

 Contributions to Isotropic shielding for atom   15 (    32.3488 ppm):
                         Standard Origin              Atomic Origin
 NLMO      Total    Paramagnetic  Diamagnetic   Paramagnetic  Diamagnetic
    1       0.7909        2.4368      -1.6459        -0.1994       0.9904
    5       1.3154        0.9928       0.3226         0.3741       0.9413
    6       1.2781        0.9007       0.3773         0.2663       1.0118
    7      26.5030       -0.2946      26.7975         0.4740      26.0290
   19       0.0185       -0.0435       0.0620        -1.0420       1.0605
   21      -0.0969       -0.0626      -0.0342        -1.2553       1.1584
 Sum       29.8090        3.9296      25.8793        -1.3824      31.1913

 Contributions to Isotropic shielding for atom   16 (    32.2527 ppm):
                         Standard Origin              Atomic Origin
 NLMO      Total    Paramagnetic  Diamagnetic   Paramagnetic  Diamagnetic
    2      -0.2063       -1.0181       0.8118        -0.7677       0.5615
    8       1.0894       -0.1328       1.2222         0.2106       0.8789
    9       0.8294        0.2557       0.5737        -0.2031       1.0326
   10       0.5822        0.7177      -0.1355        -0.8278       1.4100
   11      26.7315        0.4447      26.2868         0.6701      26.0614
   22       0.0473       -1.3993       1.4466        -1.0557       1.1029
   26      -0.3769       -1.2010       0.8240        -0.8881       0.5112
 Sum       28.6966       -2.3331      31.0297        -2.8618      31.5584

 Contributions to Isotropic shielding for atom   17 (    32.5399 ppm):
                         Standard Origin              Atomic Origin
 NLMO      Total    Paramagnetic  Diamagnetic   Paramagnetic  Diamagnetic
   12       1.3807        0.4103       0.9704         0.4928       0.8879
   13       1.0656        1.0353       0.0303         0.0799       0.9857
   14      26.4370        0.0674      26.3696         0.5003      25.9367
   15       2.0513        1.7386       0.3127         0.2717       1.7796
   16      -0.1549       -0.0235      -0.1313        -1.3269       1.1721
 Sum       30.7798        3.2280      27.5517         0.0178      30.7620

 Contributions to Isotropic shielding for atom   18 (    32.2105 ppm):
                         Standard Origin              Atomic Origin
 NLMO      Total    Paramagnetic  Diamagnetic   Paramagnetic  Diamagnetic
   12       1.3678        0.3295       1.0384         0.3298       1.0380
   13       1.0712        0.9942       0.0770         0.0771       0.9941
   14       1.9324        1.6325       0.2999         0.1100       1.8225
   15      26.4516       -0.0146      26.4663         0.4336      26.0180
   17      -0.1428       -0.2744       0.1317        -1.2975       1.1547
 Sum       30.6803        2.6671      28.0132        -0.3469      31.0272

 Contributions to Isotropic shielding for atom   19 (    31.9507 ppm):
                         Standard Origin              Atomic Origin
 NLMO      Total    Paramagnetic  Diamagnetic   Paramagnetic  Diamagnetic
    8       1.2368        0.7944       0.4423         0.2321       1.0047
   10      -0.0005       -0.4176       0.4171        -1.5848       1.5843
   12       1.0670        1.0381       0.0289        -0.0398       1.1069
   15      -0.0964       -0.7348       0.6384        -1.2682       1.1718
   16       1.0212        1.4391      -0.4179        -0.1566       1.1778
   17      26.3029       -0.0907      26.3935         0.4588      25.8441
   30      -0.1470       -1.4053       1.2584        -1.0166       0.8696
 Sum       29.3840        0.6232      28.7608        -3.3752      32.7592

 Contributions to Isotropic shielding for atom   20 (    33.0909 ppm):
                         Standard Origin              Atomic Origin
 NLMO      Total    Paramagnetic  Diamagnetic   Paramagnetic  Diamagnetic
    1      -0.0954       -0.6566       0.5612        -1.1776       1.0822
    2      -0.0348       -1.0399       1.0052        -0.9819       0.9471
    5       1.3508        0.4478       0.9029         0.5437       0.8071
   13       1.3857       -0.1619       1.5476         0.4664       0.9193
   18      26.4359        0.2474      26.1886         0.4044      26.0315
   19       1.9782        1.6879       0.2903         0.1931       1.7851
   27      -0.3210       -1.0685       0.7475        -0.8634       0.5424
 Sum       30.6994       -0.5439      31.2433        -1.4153      32.1147

 Contributions to Isotropic shielding for atom   21 (    32.4243 ppm):
                         Standard Origin              Atomic Origin
 NLMO      Total    Paramagnetic  Diamagnetic   Paramagnetic  Diamagnetic
    4      -0.0733       -1.0402       0.9669        -0.9255       0.8522
    5       0.9747        1.4382      -0.4634         0.0125       0.9622
    7       0.0572       -0.2495       0.3068        -0.9785       1.0358
   13       1.1269        1.0201       0.1067         0.1496       0.9773
   18       2.1027        1.2311       0.8717         0.3422       1.7605
   19      26.4420       -0.0756      26.5176         0.4626      25.9795
 Sum       30.6303        2.3240      28.3063        -0.9372      31.5675

 Contributions to Isotropic shielding for atom   22 (    32.1149 ppm):
                         Standard Origin              Atomic Origin
 NLMO      Total    Paramagnetic  Diamagnetic   Paramagnetic  Diamagnetic
    1      -0.1608       -0.3629       0.2022        -1.2769       1.1161
    3      -0.0556       -1.3020       1.2464        -0.9907       0.9350
    6       1.0403        1.1867      -0.1464         0.1784       0.8619
    9       1.2426        0.4910       0.7516         0.3543       0.8883
   10      -0.0161        0.0861      -0.1022        -1.5655       1.5493
   20      26.2231        0.0432      26.1798         0.4804      25.7427
   21       2.0652        1.7084       0.3567         0.2103       1.8549
 Sum       30.3386        1.8505      28.4881        -2.6096      32.9482

 Contributions to Isotropic shielding for atom   23 (    31.9829 ppm):
                         Standard Origin              Atomic Origin
 NLMO      Total    Paramagnetic  Diamagnetic   Paramagnetic  Diamagnetic
    6       1.0889        0.7910       0.2979         0.1014       0.9875
    7      -0.0339       -0.6877       0.6538        -1.1519       1.1180
    9       1.3482        0.2333       1.1148         0.4763       0.8718
   10       0.0769       -0.0665       0.1435        -1.4747       1.5516
   20       1.9360        1.6828       0.2533         0.0396       1.8965
   21      26.2655        0.0461      26.2194         0.4068      25.8587
 Sum       30.6816        1.9989      28.6827        -1.6024      32.2841

 Contributions to Isotropic shielding for atom   24 (    34.4968 ppm):
                         Standard Origin              Atomic Origin
 NLMO      Total    Paramagnetic  Diamagnetic   Paramagnetic  Diamagnetic
   10       1.5715        1.4292       0.1423         0.8366       0.7349
   11      -0.1605        0.1099      -0.2703        -1.3456       1.1852
   22      22.9071       -0.5191      23.4262        -0.1793      23.0865
   29      -0.4130       -1.2420       0.8291        -0.9081       0.4951
   43       3.9422        1.3233       2.6189         1.9933       1.9489
   44       5.3065        2.2914       3.0151         2.0108       3.2956
 Sum       33.1539        3.3927      29.7612         2.4077      30.7462

 Contributions to Isotropic shielding for atom   25 (    32.4102 ppm):
                         Standard Origin              Atomic Origin
 NLMO      Total    Paramagnetic  Diamagnetic   Paramagnetic  Diamagnetic
   12      -0.1008        0.2871      -0.3879        -1.0826       0.9818
   16       1.6052        0.2860       1.3191         0.5333       1.0719
   23       0.9905        1.5332      -0.5427        -0.0379       1.0285
   24       0.7729        2.1159      -1.3429        -0.2603       1.0332
   25      26.5383       -0.1853      26.7236         0.4725      26.0658
   31       0.1725       -0.6479       0.8204        -0.8730       1.0455
 Sum       29.9787        3.3890      26.5897        -1.2480      31.2267

 Contributions to Isotropic shielding for atom   26 (    32.9678 ppm):
                         Standard Origin              Atomic Origin
 NLMO      Total    Paramagnetic  Diamagnetic   Paramagnetic  Diamagnetic
    8      -0.0816       -0.0869       0.0053        -1.0017       0.9201
   23       1.4931       -0.6049       2.0980         0.5508       0.9424
   26      26.3801        0.3052      26.0749         0.3601      26.0200
   27       2.1399        0.3450       1.7948         0.3257       1.8142
   28       1.9934        1.7417       0.2518         0.1511       1.8423
 Sum       31.9250        1.7001      30.2249         0.3860      31.5389

 Contributions to Isotropic shielding for atom   27 (    32.6312 ppm):
                         Standard Origin              Atomic Origin
 NLMO      Total    Paramagnetic  Diamagnetic   Paramagnetic  Diamagnetic
   12      -0.0866       -0.0521      -0.0346        -1.0175       0.9309
   23       1.4325       -0.3586       1.7911         0.3974       1.0351
   26       2.1296        0.2301       1.8995         0.3043       1.8252
   27      26.2839        0.2476      26.0363         0.3818      25.9021
   28       1.9657        1.9416       0.0241         0.0864       1.8794
 Sum       31.7250        2.0086      29.7165         0.1524      31.5727

 Contributions to Isotropic shielding for atom   28 (    32.6278 ppm):
                         Standard Origin              Atomic Origin
 NLMO      Total    Paramagnetic  Diamagnetic   Paramagnetic  Diamagnetic
   23       1.1470        1.0104       0.1366         0.1185       1.0285
   24      -0.1440        0.3794      -0.5234        -1.1450       1.0010
   26       2.0411        1.3143       0.7268         0.1836       1.8575
   27       2.0338        1.6413       0.3925         0.1591       1.8747
   28      26.2897       -0.0298      26.3195         0.3991      25.8905
 Sum       31.3676        4.3156      27.0520        -0.2847      31.6523

 Contributions to Isotropic shielding for atom   29 (    33.2013 ppm):
                         Standard Origin              Atomic Origin
 NLMO      Total    Paramagnetic  Diamagnetic   Paramagnetic  Diamagnetic
    8      -0.0897        0.0699      -0.1595        -1.0325       0.9428
   10      -0.0799        0.0713      -0.1512        -1.1427       1.0628
   23      -0.1566        0.1699      -0.3265        -1.1135       0.9569
   24       1.5976       -1.0368       2.6343         0.6700       0.9276
   29      26.5773        0.3096      26.2677         0.3959      26.1813
   30       2.0611        0.8045       1.2566         0.2500       1.8111
   31       1.9509        1.9539      -0.0030         0.0864       1.8645
 Sum       31.8607        2.3423      29.5184        -1.8864      33.7470

 Contributions to Isotropic shielding for atom   30 (    32.3112 ppm):
                         Standard Origin              Atomic Origin
 NLMO      Total    Paramagnetic  Diamagnetic   Paramagnetic  Diamagnetic
   16      -0.0668        0.1207      -0.1875        -1.0428       0.9760
   24       1.5037       -0.6219       2.1256         0.4915       1.0122
   29       2.0382        0.6789       1.3593         0.2502       1.7880
   30      26.1929        0.2680      25.9249         0.4424      25.7506
   31       1.8881        2.2634      -0.3753         0.0456       1.8425
 Sum       31.5561        2.7090      28.8471         0.1868      31.3693

 Contributions to Isotropic shielding for atom   31 (    32.4293 ppm):
                         Standard Origin              Atomic Origin
 NLMO      Total    Paramagnetic  Diamagnetic   Paramagnetic  Diamagnetic
   23      -0.1399        0.6232      -0.7630        -1.0305       0.8907
   24       1.2579        0.4180       0.8398         0.2279       1.0300
   25       0.1140        0.5478      -0.4338        -0.8895       1.0035
   29       1.9321        1.5092       0.4229         0.0838       1.8483
   30       1.9332        1.9694      -0.0361         0.0603       1.8729
   31      26.3486        0.0069      26.3417         0.4538      25.8948
 Sum       31.4460        5.0745      26.3714        -1.0943      32.5402
 
 1\1\GINC-COMPUTE-10-5\SP\RHF\STO-3G\C10H20O1\YTSAI.IQUIR\03-Aug-2021\0
 \\# rhf/STO-3G nmr pop=nbo\\comment\\0,1\C,0,0.304107404,0.474019049,-
 3.222626946\C,0,-0.77846438,0.37113472,-2.147094482\C,0,-0.051089606,-
 1.124738243,-0.212146591\C,0,-1.239238222,1.10213592,0.236401616\C,0,-
 0.662522427,-0.192121052,0.86140883\C,0,-0.580546254,1.467552228,-1.09
 0165787\C,0,-0.822526313,-1.03377759,-1.530049654\O,0,-0.129094875,-2.
 482528013,0.218291153\C,0,0.272390489,0.126719304,2.070795768\C,0,1.51
 8924767,0.93929421,1.708998458\C,0,0.687941178,-1.121686766,2.85349480
 1\H,0,1.298312236,0.276247966,-2.807834522\H,0,0.123327195,-0.24798910
 4,-4.025986162\H,0,0.314004924,1.47408717,-3.668905867\H,0,-1.74326118
 5,0.540658227,-2.643638994\H,0,1.00123476,-0.88912924,-0.402894046\H,0
 ,-1.169995567,1.944840256,0.933714885\H,0,-2.312764078,0.953877069,0.0
 56949155\H,0,-1.520541554,-0.722496535,1.302212012\H,0,0.487740479,1.6
 52727977,-0.928232474\H,0,-1.000859424,2.409346499,-1.463415723\H,0,-0
 .458741178,-1.79013636,-2.23711168\H,0,-1.869512417,-1.310390267,-1.34
 104814\H,0,0.719503141,-2.712984212,0.630426727\H,0,-0.315448344,0.740
 565118,2.768021152\H,0,2.165545641,0.4062398,1.006039394\H,0,1.2543650
 87,1.905389916,1.270393189\H,0,2.111967222,1.149038408,2.606417583\H,0
 ,1.444851404,-1.703808084,2.320329662\H,0,-0.173009885,-1.765557064,3.
 059319209\H,0,1.12339978,-0.836531305,3.817937475\\Version=EM64L-G09Re
 vC.01\State=1-A\HF=-459.6080894\RMSD=1.218e-09\Dipole=0.3672694,0.3680
 934,0.0872324\Quadrupole=1.31306,-2.0527395,0.7396795,-2.3605037,0.638
 8972,-0.1897132\PG=C01 [X(C10H20O1)]\\@


 WHAT, THEN, IS TIME?  IF NO ONE ASKS ME, I KNOW WHAT IT IS.
 IF I WISH TO EXPLAIN WHAT IT IS TO HIM WHO ASKS ME, I DO NOT KNOW.
                                   -- ST. AUGUSTINE (FIFTH CENTURY)
 Job cpu time:  0 days  0 hours  0 minutes 24.3 seconds.
 File lengths (MBytes):  RWF=      5 Int=      0 D2E=      0 Chk=      1 Scr=      1
 Normal termination of Gaussian 09 at Tue Aug  3 16:36:54 2021.
