 Entering Gaussian System, Link 0=g09
 Input=/home/ytsai.iquir/menthol/03_menthol_M0100_MMFF_NMR_rhf_STO-3G_nbo.gjc
 Output=/home/ytsai.iquir/menthol/03_menthol_M0100_MMFF_NMR_rhf_STO-3G_nbo.log
 Initial command:
 /share/apps/Gaussian09/EM64T.SSE4.2-enabled/g09/l1.exe /tmp/Gau-31219.inp -scrdir=/tmp/
 Entering Link 1 = /share/apps/Gaussian09/EM64T.SSE4.2-enabled/g09/l1.exe PID=     31220.
  
 Copyright (c) 1988,1990,1992,1993,1995,1998,2003,2009,2011,
            Gaussian, Inc.  All Rights Reserved.
  
 This is part of the Gaussian(R) 09 program.  It is based on
 the Gaussian(R) 03 system (copyright 2003, Gaussian, Inc.),
 the Gaussian(R) 98 system (copyright 1998, Gaussian, Inc.),
 the Gaussian(R) 94 system (copyright 1995, Gaussian, Inc.),
 the Gaussian 92(TM) system (copyright 1992, Gaussian, Inc.),
 the Gaussian 90(TM) system (copyright 1990, Gaussian, Inc.),
 the Gaussian 88(TM) system (copyright 1988, Gaussian, Inc.),
 the Gaussian 86(TM) system (copyright 1986, Carnegie Mellon
 University), and the Gaussian 82(TM) system (copyright 1983,
 Carnegie Mellon University). Gaussian is a federally registered
 trademark of Gaussian, Inc.
  
 This software contains proprietary and confidential information,
 including trade secrets, belonging to Gaussian, Inc.
  
 This software is provided under written license and may be
 used, copied, transmitted, or stored only in accord with that
 written license.
  
 The following legend is applicable only to US Government
 contracts under FAR:
  
                    RESTRICTED RIGHTS LEGEND
  
 Use, reproduction and disclosure by the US Government is
 subject to restrictions as set forth in subparagraphs (a)
 and (c) of the Commercial Computer Software - Restricted
 Rights clause in FAR 52.227-19.
  
 Gaussian, Inc.
 340 Quinnipiac St., Bldg. 40, Wallingford CT 06492
  
  
 ---------------------------------------------------------------
 Warning -- This program may not be used in any manner that
 competes with the business of Gaussian, Inc. or will provide
 assistance to any competitor of Gaussian, Inc.  The licensee
 of this program is prohibited from giving any competitor of
 Gaussian, Inc. access to this program.  By using this program,
 the user acknowledges that Gaussian, Inc. is engaged in the
 business of creating and licensing software in the field of
 computational chemistry and represents and warrants to the
 licensee that it is not a competitor of Gaussian, Inc. and that
 it will not use this program in any manner prohibited above.
 ---------------------------------------------------------------
  

 Cite this work as:
 Gaussian 09, Revision C.01,
 M. J. Frisch, G. W. Trucks, H. B. Schlegel, G. E. Scuseria, 
 M. A. Robb, J. R. Cheeseman, G. Scalmani, V. Barone, B. Mennucci, 
 G. A. Petersson, H. Nakatsuji, M. Caricato, X. Li, H. P. Hratchian, 
 A. F. Izmaylov, J. Bloino, G. Zheng, J. L. Sonnenberg, M. Hada, 
 M. Ehara, K. Toyota, R. Fukuda, J. Hasegawa, M. Ishida, T. Nakajima, 
 Y. Honda, O. Kitao, H. Nakai, T. Vreven, J. A. Montgomery, Jr., 
 J. E. Peralta, F. Ogliaro, M. Bearpark, J. J. Heyd, E. Brothers, 
 K. N. Kudin, V. N. Staroverov, T. Keith, R. Kobayashi, J. Normand, 
 K. Raghavachari, A. Rendell, J. C. Burant, S. S. Iyengar, J. Tomasi, 
 M. Cossi, N. Rega, J. M. Millam, M. Klene, J. E. Knox, J. B. Cross, 
 V. Bakken, C. Adamo, J. Jaramillo, R. Gomperts, R. E. Stratmann, 
 O. Yazyev, A. J. Austin, R. Cammi, C. Pomelli, J. W. Ochterski, 
 R. L. Martin, K. Morokuma, V. G. Zakrzewski, G. A. Voth, 
 P. Salvador, J. J. Dannenberg, S. Dapprich, A. D. Daniels, 
 O. Farkas, J. B. Foresman, J. V. Ortiz, J. Cioslowski, 
 and D. J. Fox, Gaussian, Inc., Wallingford CT, 2010.
 
 ******************************************
 Gaussian 09:  EM64L-G09RevC.01 23-Sep-2011
                 3-Aug-2021 
 ******************************************
 %nprocshared=4
 Will use up to    4 processors via shared memory.
 ------------------------
 # rhf/STO-3G nmr pop=nbo
 ------------------------
 1/38=1/1;
 2/12=2,17=6,18=5,40=1/2;
 3/6=3,11=1,16=1,25=1,30=1,116=1/1,2,8,3;
 4//1;
 5/5=2,38=5/2;
 8/6=1,10=90,11=11/1;
 10/13=100,45=16/2;
 6/7=2,8=2,9=2,10=2,28=1,64=1/1,7;
 99/9=1/99;
 -------
 comment
 -------
 Charge =  0 Multiplicity = 1
 Symbolic Z-Matrix:
 6                     0.31831   0.38723  -3.2467 
 6                    -0.73761   0.3311   -2.14159 
 6                    -0.01274  -1.11437  -0.17009 
 6                    -1.1469    1.14947   0.22447 
 6                    -0.6061   -0.14372   0.87974 
 6                    -0.49407   1.45321  -1.12057 
 6                    -0.78812  -1.05753  -1.48731 
 8                    -0.05265  -2.45518   0.31495 
 6                     0.33979   0.16702   2.08201 
 6                     1.60329   0.9465    1.70573 
 6                     0.73052  -1.08936   2.8662 
 1                     0.105    -0.35245  -4.02565 
 1                     0.33321   1.37489  -3.71966 
 1                     1.31942   0.18341  -2.85189 
 1                    -1.71201   0.50408  -2.61781 
 1                     1.03781  -0.88245  -0.37002 
 1                    -1.04096   2.00911   0.89594 
 1                    -2.22686   1.03186   0.06182 
 1                    -1.47856  -0.64044   1.33091 
 1                     0.58134   1.6106   -0.97577 
 1                    -0.8904    2.39553  -1.51796 
 1                    -0.43116  -1.83606  -2.17319 
 1                    -1.8363   -1.32075  -1.28714 
 1                    -0.9829   -2.68917   0.47425 
 1                    -0.22952   0.79993   2.77729 
 1                     2.24116   0.3856    1.01657 
 1                     1.35961   1.90783   1.24503 
 1                     2.1983    1.16326   2.60016 
 1                     1.42426  -1.72138   2.30316 
 1                    -0.15271  -1.68284   3.1237 
 1                     1.22755  -0.81495   3.80339 
 
                          Input orientation:                          
 ---------------------------------------------------------------------
 Center     Atomic      Atomic             Coordinates (Angstroms)
 Number     Number       Type             X           Y           Z
 ---------------------------------------------------------------------
      1          6           0        0.318309    0.387229   -3.246705
      2          6           0       -0.737611    0.331104   -2.141586
      3          6           0       -0.012737   -1.114370   -0.170088
      4          6           0       -1.146904    1.149475    0.224468
      5          6           0       -0.606103   -0.143724    0.879738
      6          6           0       -0.494067    1.453209   -1.120565
      7          6           0       -0.788116   -1.057530   -1.487309
      8          8           0       -0.052647   -2.455181    0.314951
      9          6           0        0.339794    0.167019    2.082013
     10          6           0        1.603287    0.946497    1.705734
     11          6           0        0.730520   -1.089358    2.866201
     12          1           0        0.104999   -0.352447   -4.025647
     13          1           0        0.333206    1.374892   -3.719660
     14          1           0        1.319416    0.183407   -2.851891
     15          1           0       -1.712005    0.504082   -2.617812
     16          1           0        1.037811   -0.882448   -0.370018
     17          1           0       -1.040961    2.009113    0.895940
     18          1           0       -2.226864    1.031861    0.061816
     19          1           0       -1.478561   -0.640436    1.330908
     20          1           0        0.581344    1.610602   -0.975768
     21          1           0       -0.890403    2.395528   -1.517964
     22          1           0       -0.431159   -1.836059   -2.173186
     23          1           0       -1.836298   -1.320747   -1.287136
     24          1           0       -0.982896   -2.689167    0.474247
     25          1           0       -0.229524    0.799929    2.777294
     26          1           0        2.241159    0.385603    1.016571
     27          1           0        1.359606    1.907833    1.245031
     28          1           0        2.198298    1.163256    2.600163
     29          1           0        1.424260   -1.721381    2.303164
     30          1           0       -0.152708   -1.682838    3.123703
     31          1           0        1.227555   -0.814954    3.803391
 ---------------------------------------------------------------------
                    Distance matrix (angstroms):
                    1          2          3          4          5
     1  C    0.000000
     2  C    1.529511   0.000000
     3  C    3.439471   2.549832   0.000000
     4  C    3.844074   2.536821   2.562616   0.000000
     5  C    4.261922   3.061234   1.548022   1.547323   0.000000
     6  C    2.513312   1.536528   2.779847   1.525636   2.562023
     7  C    2.531201   1.535882   1.529547   2.815985   2.543832
     8  O    4.571903   3.777186   1.426405   3.768173   2.442976
     9  C    5.333309   4.361939   2.614993   2.574095   1.561008
    10  C    5.146902   4.545369   3.221399   3.130319   2.598511
    11  C    6.302209   5.408424   3.126036   3.939016   2.574261
    12  H    1.095158   2.174147   3.931885   4.678301   4.961052
    13  H    1.095166   2.174043   4.349203   4.218730   4.933859
    14  H    1.095279   2.181217   3.263576   4.059557   4.211852
    15  H    2.128693   1.098252   3.390908   2.968910   3.724987
    16  H    3.225692   2.786267   1.094262   3.042219   2.193184
    17  H    4.651842   3.483433   3.456850   1.095937   2.196377
    18  H    4.223715   2.750258   3.092321   1.098455   2.162837
    19  H    5.023881   3.681184   2.150871   2.130255   1.100663
    20  H    2.592872   2.176210   2.903020   2.154076   2.816131
    21  H    2.912524   2.161966   3.860887   2.157431   3.503941
    22  H    2.580146   2.188950   2.169865   3.895439   3.494989
    23  H    3.376303   2.160048   2.148433   2.976946   2.755741
    24  H    5.000283   4.003097   1.958663   3.850254   2.604933
    25  H    6.062920   4.967226   3.521164   2.735085   2.152443
    26  H    4.676844   4.341658   2.956032   3.562288   2.899278
    27  H    4.855124   4.284107   3.608268   2.810561   2.864671
    28  H    6.190512   5.638814   4.213140   4.102986   3.540159
    29  H    6.039073   5.351839   2.924106   4.378775   2.938965
    30  H    6.714844   5.667569   3.345416   4.173246   2.758589
    31  H    7.209426   6.365381   4.173309   4.722894   3.515764
                    6          7          8          9         10
     6  C    0.000000
     7  C    2.554364   0.000000
     8  O    4.187013   2.396348   0.000000
     9  C    3.550509   3.938496   3.186291   0.000000
    10  C    3.555787   4.464354   4.030857   1.531531   0.000000
    11  C    4.884523   4.610890   2.997949   1.531699   2.500622
    12  H    3.472574   2.781718   4.825674   6.134205   6.064722
    13  H    2.728701   3.486751   5.576418   5.926079   5.588518
    14  H    2.810446   2.800661   4.344375   5.030242   4.629777
    15  H    2.150805   2.137812   4.484619   5.139245   5.466255
    16  H    2.892276   2.147790   2.032676   2.757002   2.823747
    17  H    2.162040   3.892057   4.609148   2.589703   2.962595
    18  H    2.139660   2.972430   4.117131   3.378887   4.168910
    19  H    3.370801   2.931387   2.521647   2.126630   3.486637
    20  H    1.096471   3.042371   4.312597   3.390029   2.945480
    21  H    1.096801   3.454708   5.252694   4.409021   4.325553
    22  H    3.454164   1.097248   2.591796   4.765858   5.189182
    23  H    3.086124   1.099108   2.652365   4.277849   5.091995
    24  H    4.465608   2.558883   0.972362   3.534433   4.628494
    25  H    3.961069   4.684978   4.085360   1.099143   2.128126
    26  H    3.631610   4.186711   3.718047   2.190465   1.093814
    27  H    3.039545   4.568563   4.679252   2.184259   1.093523
    28  H    4.601817   5.527928   4.835497   2.171407   1.095914
    29  H    5.047764   4.438805   2.583159   2.188841   2.739808
    30  H    5.288207   4.696401   2.914724   2.179368   3.465192
    31  H    5.688048   5.666858   4.061832   2.171528   2.764787
                   11         12         13         14         15
    11  C    0.000000
    12  H    6.959301   0.000000
    13  H    7.043007   1.769013   0.000000
    14  H    5.887555   1.771906   1.773491   0.000000
    15  H    6.211230   2.452987   2.480981   3.057309   0.000000
    16  H    3.257353   3.809811   4.100263   2.715703   3.812680
    17  H    4.076837   5.577832   4.857401   4.790702   3.880963
    18  H    4.594591   4.905226   4.579432   4.667512   2.779215
    19  H    2.727397   5.593146   5.731692   5.099334   4.117865
    20  H    4.698165   3.658173   2.765154   2.470116   3.029876
    21  H    5.830327   3.851060   2.717791   3.399433   2.337148
    22  H    5.225177   2.433142   3.645002   2.757426   2.704537
    23  H    4.887975   3.493663   4.229703   3.830074   2.261890
    24  H    3.349123   5.185829   5.986448   4.961403   4.504361
    25  H    2.121084   6.907958   6.546577   5.870864   5.602896
    26  H    2.806897   5.525564   5.201044   3.981895   5.371246
    27  H    3.465125   5.870515   5.097616   4.445226   5.130972
    28  H    2.701744   7.112005   6.592688   5.608693   6.553797
    29  H    1.094412   6.608198   6.859426   5.496709   6.245387
    30  H    1.094814   7.276645   7.511155   6.430999   6.338693
    31  H    1.095750   7.922618   7.886164   6.730375   7.184199
                   16         17         18         19         20
    16  H    0.000000
    17  H    3.779559   0.000000
    18  H    3.809089   1.748471   0.000000
    19  H    3.046941   2.720442   2.228706   0.000000
    20  H    2.605876   2.508780   3.049189   3.825067   0.000000
    21  H    3.972519   2.449268   2.478188   4.204649   1.753889
    22  H    2.513694   4.957493   4.055213   3.847758   3.786613
    23  H    3.048559   4.060339   2.739887   2.728545   3.812447
    24  H    2.839062   4.717524   3.945074   2.275269   4.799729
    25  H    3.787097   2.379085   3.378902   2.393069   3.924305
    26  H    2.231284   3.663693   4.614373   3.871419   2.867929
    27  H    3.240000   2.427931   3.876867   3.815265   2.371916
    28  H    3.788616   3.756681   5.103189   4.287611   3.949929
    29  H    2.828260   4.687662   5.092611   3.246551   4.750159
    30  H    3.776777   4.402547   4.587686   2.461422   5.309542
    31  H    4.178265   4.644867   5.416929   3.669699   5.398265
                   21         22         23         24         25
    21  H    0.000000
    22  H    4.306570   0.000000
    23  H    3.841705   1.739266   0.000000
    24  H    5.461829   2.835685   2.388167   0.000000
    25  H    4.629464   5.612160   4.857838   4.247987   0.000000
    26  H    4.502260   4.717161   4.984411   4.488080   3.062040
    27  H    3.596461   5.376595   5.200904   5.216688   2.469942
    28  H    5.293160   6.220514   6.128567   5.429611   2.461240
    29  H    6.075164   4.847003   4.866416   3.174264   3.052344
    30  H    6.222727   5.306415   4.735092   2.953224   2.507994
    31  H    6.565802   6.285973   5.962926   4.413838   2.404953
                   26         27         28         29         30
    26  H    0.000000
    27  H    1.773841   0.000000
    28  H    1.764751   1.759029   0.000000
    29  H    2.600390   3.780875   3.001411   0.000000
    30  H    3.801192   4.325438   3.728481   1.778089   0.000000
    31  H    3.199234   3.738477   2.510660   1.763798   1.766444
                   31
    31  H    0.000000
 Stoichiometry    C10H20O
 Framework group  C1[X(C10H20O)]
 Deg. of freedom    87
 Full point group                 C1      NOp   1
 Largest Abelian subgroup         C1      NOp   1
 Largest concise Abelian subgroup C1      NOp   1
                         Standard orientation:                         
 ---------------------------------------------------------------------
 Center     Atomic      Atomic             Coordinates (Angstroms)
 Number     Number       Type             X           Y           Z
 ---------------------------------------------------------------------
      1          6           0       -3.135304   -0.133845    1.055883
      2          6           0       -2.287776   -0.080324   -0.216215
      3          6           0       -0.001209    0.977368    0.176900
      4          6           0       -0.226847   -1.141342   -1.246881
      5          6           0        0.727642   -0.033189   -0.741752
      6          6           0       -1.431598   -1.350706   -0.334574
      7          6           0       -1.445669    1.202871   -0.272763
      8          8           0        0.672438    2.234622    0.164954
      9          6           0        2.038989   -0.627683   -0.138683
     10          6           0        1.822299   -1.516464    1.089609
     11          6           0        3.079633    0.447838    0.187532
     12          1           0       -3.813031    0.724873    1.107481
     13          1           0       -3.746082   -1.042619    1.077537
     14          1           0       -2.507689   -0.123693    1.953454
     15          1           0       -2.983168   -0.053068   -1.065829
     16          1           0       -0.005877    0.631919    1.215194
     17          1           0        0.305098   -2.088805   -1.389805
     18          1           0       -0.596158   -0.855948   -2.241247
     19          1           0        1.054983    0.514373   -1.638682
     20          1           0       -1.086839   -1.672153    0.655406
     21          1           0       -2.050435   -2.168500   -0.723451
     22          1           0       -1.905290    2.009036    0.312729
     23          1           0       -1.435246    1.578682   -1.305572
     24          1           0        0.664065    2.570961   -0.747347
     25          1           0        2.485496   -1.262984   -0.916590
     26          1           0        1.384839   -0.962084    1.924906
     27          1           0        1.172133   -2.365497    0.861092
     28          1           0        2.776891   -1.929652    1.434653
     29          1           0        2.787071    1.047626    1.054941
     30          1           0        3.233567    1.117562   -0.664753
     31          1           0        4.045194   -0.014150    0.421900
 ---------------------------------------------------------------------
 Rotational constants (GHZ):      1.6203842      0.7825844      0.6467257
 Standard basis: STO-3G (5D, 7F)
 There are    75 symmetry adapted basis functions of A   symmetry.
 Integral buffers will be    131072 words long.
 Raffenetti 1 integral format.
 Two-electron integral symmetry is turned on.
    75 basis functions,   225 primitive gaussians,    75 cartesian basis functions
    44 alpha electrons       44 beta electrons
       nuclear repulsion energy       698.5382888136 Hartrees.
 NAtoms=   31 NActive=   31 NUniq=   31 SFac= 1.00D+00 NAtFMM=   60 NAOKFM=F Big=F
 One-electron integrals computed using PRISM.
 NBasis=    75 RedAO= T  NBF=    75
 NBsUse=    75 1.00D-06 NBFU=    75
 Harris functional with IExCor=  205 diagonalized for initial guess.
 ExpMin= 1.69D-01 ExpMax= 1.31D+02 ExpMxC= 1.31D+02 IAcc=1 IRadAn=         1 AccDes= 0.00D+00
 HarFok:  IExCor=  205 AccDes= 0.00D+00 IRadAn=         1 IDoV= 1
 ScaDFX=  1.000000  1.000000  1.000000  1.000000
 FoFCou: FMM=F IPFlag=           0 FMFlag=      100000 FMFlg1=           0
         NFxFlg=           0 DoJE=T BraDBF=F KetDBF=T FulRan=T
         Omega=  0.000000  0.000000  1.000000  0.000000  0.000000 ICntrl=     500 IOpCl=  0
         NMat0=    1 NMatS0=    1 NMatT0=    0 NMatD0=    1 NMtDS0=    0 NMtDT0=    0
         I1Cent=           4 NGrid=           0.
 Petite list used in FoFCou.
 Initial guess orbital symmetries:
       Occupied  (A) (A) (A) (A) (A) (A) (A) (A) (A) (A) (A) (A)
                 (A) (A) (A) (A) (A) (A) (A) (A) (A) (A) (A) (A)
                 (A) (A) (A) (A) (A) (A) (A) (A) (A) (A) (A) (A)
                 (A) (A) (A) (A) (A) (A) (A) (A)
       Virtual   (A) (A) (A) (A) (A) (A) (A) (A) (A) (A) (A) (A)
                 (A) (A) (A) (A) (A) (A) (A) (A) (A) (A) (A) (A)
                 (A) (A) (A) (A) (A) (A) (A)
 The electronic state of the initial guess is 1-A.
 Requested convergence on RMS density matrix=1.00D-08 within 128 cycles.
 Requested convergence on MAX density matrix=1.00D-06.
 Requested convergence on             energy=1.00D-06.
 No special actions if energy rises.
 Keep R1 ints in memory in canonical form, NReq=4898789.
 SCF Done:  E(RHF) =  -459.611306304     A.U. after   10 cycles
             Convg  =    0.8126D-08             -V/T =  2.0089
 Range of M.O.s used for correlation:     1    75
 NBasis=    75 NAE=    44 NBE=    44 NFC=     0 NFV=     0
 NROrb=     75 NOA=    44 NOB=    44 NVA=    31 NVB=    31
          Differentiating once with respect to magnetic field using GIAOs.
          Electric field/nuclear overlap derivatives assumed to be zero.
          Keep R3 ints in memory in canonical form, NReq=4863575.
 FoFCou: FMM=F IPFlag=           0 FMFlag=           0 FMFlg1=           0
         NFxFlg=           0 DoJE=F BraDBF=F KetDBF=T FulRan=T
         Omega=  0.000000  0.000000  1.000000  0.000000  0.000000 ICntrl=    6100 IOpCl=  0
         NMat0=    1 NMatS0=    1 NMatT0=    0 NMatD0=    1 NMtDS0=    0 NMtDT0=    0
         I1Cent=           7 NGrid=          31.
 Symmetry not used in FoFCou.
          There are     3 degrees of freedom in the 1st order CPHF.  IDoFFX=0.
      3 vectors produced by pass  0 Test12= 4.55D-14 3.33D-08 XBig12= 6.72D+00 4.00D-01.
 AX will form     3 AO Fock derivatives at one time.
      3 vectors produced by pass  1 Test12= 4.55D-14 3.33D-08 XBig12= 1.07D-02 1.55D-02.
      3 vectors produced by pass  2 Test12= 4.55D-14 3.33D-08 XBig12= 7.57D-05 2.09D-03.
      3 vectors produced by pass  3 Test12= 4.55D-14 3.33D-08 XBig12= 1.63D-06 3.50D-04.
      3 vectors produced by pass  4 Test12= 4.55D-14 3.33D-08 XBig12= 2.03D-08 4.26D-05.
      3 vectors produced by pass  5 Test12= 4.55D-14 3.33D-08 XBig12= 3.26D-10 3.16D-06.
      3 vectors produced by pass  6 Test12= 4.55D-14 3.33D-08 XBig12= 3.76D-12 4.83D-07.
      1 vectors produced by pass  7 Test12= 4.55D-14 3.33D-08 XBig12= 4.35D-14 4.10D-08.
 Inverted reduced A of dimension    22 with in-core refinement.
 Calculating GIAO nuclear magnetic shielding tensors.
 SCF GIAO Magnetic shielding tensor (ppm):
      1  C    Isotropic =   220.7388   Anisotropy =    26.9328
   XX=   222.4453   YX=    -3.2827   ZX=   -13.2134
   XY=     0.8081   YY=   215.1900   ZY=    -0.5303
   XZ=   -17.0726   YZ=    -1.9659   ZZ=   224.5809
   Eigenvalues:   207.9090   215.6134   238.6940
      2  C    Isotropic =   216.4358   Anisotropy =     9.4795
   XX=   220.8053   YX=     0.5804   ZX=    -5.0781
   XY=    -0.7203   YY=   219.2378   ZY=     2.2342
   XZ=    -4.9364   YZ=     0.3933   ZZ=   209.2642
   Eigenvalues:   207.2729   219.2791   222.7555
      3  C    Isotropic =   191.1969   Anisotropy =    44.5568
   XX=   192.6539   YX=    15.4581   ZX=    -1.6230
   XY=    15.3227   YY=   212.5087   ZY=     1.1739
   XZ=    -2.3022   YZ=     2.2086   ZZ=   168.4280
   Eigenvalues:   168.0274   184.6618   220.9014
      4  C    Isotropic =   216.8660   Anisotropy =    16.9985
   XX=   224.0431   YX=     6.1846   ZX=    -0.1307
   XY=     5.3003   YY=   217.7517   ZY=     7.3985
   XZ=     0.2699   YZ=     6.3652   ZZ=   208.8032
   Eigenvalues:   204.6671   217.7325   228.1984
      5  C    Isotropic =   207.8735   Anisotropy =     8.6901
   XX=   210.5312   YX=    -2.9312   ZX=     1.2683
   XY=    -3.8663   YY=   209.7841   ZY=     2.5951
   XZ=    -1.6550   YZ=    -0.1439   ZZ=   203.3052
   Eigenvalues:   203.0507   206.9028   213.6669
      6  C    Isotropic =   217.3414   Anisotropy =    16.5965
   XX=   220.3120   YX=    -4.7778   ZX=    -7.5235
   XY=    -8.0028   YY=   218.2099   ZY=     2.1881
   XZ=    -6.1504   YZ=     0.7294   ZZ=   213.5023
   Eigenvalues:   208.6388   214.9796   228.4057
      7  C    Isotropic =   215.0287   Anisotropy =    19.8155
   XX=   225.2840   YX=     8.3425   ZX=    -1.6711
   XY=     3.6534   YY=   215.9275   ZY=    -0.9261
   XZ=    -0.9711   YZ=     2.6782   ZZ=   203.8746
   Eigenvalues:   203.6486   213.1985   228.2390
      8  O    Isotropic =   345.9424   Anisotropy =    84.0893
   XX=   312.6199   YX=    -0.9016   ZX=    10.3449
   XY=     1.5890   YY=   328.0875   ZY=    -5.1371
   XZ=    -6.2172   YZ=   -32.6855   ZZ=   397.1196
   Eigenvalues:   312.5125   323.3128   402.0019
      9  C    Isotropic =   211.3512   Anisotropy =    18.4863
   XX=   220.8316   YX=    -1.8538   ZX=     4.0896
   XY=    -3.3455   YY=   209.4634   ZY=    -3.2170
   XZ=     9.2595   YZ=     1.2337   ZZ=   203.7587
   Eigenvalues:   201.4580   208.9203   223.6754
     10  C    Isotropic =   224.2266   Anisotropy =    20.1281
   XX=   220.7086   YX=     1.6675   ZX=    -0.5419
   XY=     2.8310   YY=   225.0316   ZY=    -9.8304
   XZ=    -1.7875   YZ=   -12.7386   ZZ=   226.9396
   Eigenvalues:   214.5338   220.5007   237.6453
     11  C    Isotropic =   221.1423   Anisotropy =    24.7673
   XX=   227.0243   YX=    11.3060   ZX=     2.7942
   XY=    11.7106   YY=   224.7258   ZY=    -2.7156
   XZ=     5.4185   YZ=     0.5852   ZZ=   211.6769
   Eigenvalues:   209.0814   216.6917   237.6539
     12  H    Isotropic =    32.4640   Anisotropy =    14.2195
   XX=    36.1571   YX=    -6.0987   ZX=    -4.0394
   XY=    -5.8987   YY=    32.8296   ZY=     1.1583
   XZ=    -3.9901   YZ=     1.6778   ZZ=    28.4054
   Eigenvalues:    26.3687    29.0797    41.9437
     13  H    Isotropic =    32.4601   Anisotropy =    13.9285
   XX=    35.1809   YX=     5.8518   ZX=    -3.8781
   XY=     6.2069   YY=    33.8369   ZY=    -1.3167
   XZ=    -4.0321   YZ=    -1.6336   ZZ=    28.3625
   Eigenvalues:    26.2211    29.4134    41.7458
     14  H    Isotropic =    32.5821   Anisotropy =     9.6704
   XX=    31.8621   YX=     0.1598   ZX=     0.5643
   XY=     0.2679   YY=    26.9109   ZY=    -0.3082
   XZ=     0.6514   YZ=    -0.1704   ZZ=    38.9735
   Eigenvalues:    26.8958    31.8216    39.0291
     15  H    Isotropic =    32.4417   Anisotropy =    14.0346
   XX=    35.7986   YX=    -0.1032   ZX=     6.6766
   XY=     0.1398   YY=    27.2464   ZY=    -0.4651
   XZ=     6.7477   YZ=    -0.2799   ZZ=    34.2802
   Eigenvalues:    27.1674    28.3597    41.7981
     16  H    Isotropic =    31.6790   Anisotropy =     5.9241
   XX=    31.3261   YX=    -0.7826   ZX=     0.0968
   XY=    -0.8458   YY=    28.4006   ZY=    -1.8836
   XZ=     0.8472   YZ=    -0.6828   ZZ=    35.3104
   Eigenvalues:    28.0121    31.3965    35.6284
     17  H    Isotropic =    32.5216   Anisotropy =    12.1947
   XX=    32.1211   YX=    -3.2355   ZX=    -0.5640
   XY=    -3.7594   YY=    37.1142   ZY=     4.9921
   XZ=    -0.4972   YZ=     4.7405   ZZ=    28.3294
   Eigenvalues:    25.9994    30.9140    40.6514
     18  H    Isotropic =    32.4222   Anisotropy =    13.2040
   XX=    29.5490   YX=     0.5050   ZX=     3.0469
   XY=     0.5383   YY=    27.2030   ZY=     0.4471
   XZ=     2.5951   YZ=     0.5690   ZZ=    40.5145
   Eigenvalues:    27.0915    28.9502    41.2249
     19  H    Isotropic =    32.9018   Anisotropy =    10.6132
   XX=    31.7984   YX=     1.8973   ZX=    -2.0112
   XY=     2.0246   YY=    30.5527   ZY=    -4.8401
   XZ=    -2.6167   YZ=    -4.3614   ZZ=    36.3543
   Eigenvalues:    27.8986    30.8295    39.9773
     20  H    Isotropic =    32.9863   Anisotropy =     8.5334
   XX=    33.1020   YX=    -1.3205   ZX=     0.7569
   XY=    -1.3711   YY=    31.2434   ZY=    -5.0991
   XZ=     0.6922   YZ=    -5.1711   ZZ=    34.6135
   Eigenvalues:    27.4434    32.8403    38.6752
     21  H    Isotropic =    32.4400   Anisotropy =    14.6853
   XX=    32.9965   YX=     5.7191   ZX=     0.7740
   XY=     5.6857   YY=    37.2778   ZY=     3.9675
   XZ=     0.9363   YZ=     4.2740   ZZ=    27.0455
   Eigenvalues:    25.3653    29.7244    42.2301
     22  H    Isotropic =    32.1960   Anisotropy =    12.7597
   XX=    32.5554   YX=    -3.5244   ZX=    -3.4877
   XY=    -3.6241   YY=    36.7031   ZY=     3.7688
   XZ=    -3.3859   YZ=     3.9838   ZZ=    27.3295
   Eigenvalues:    25.2214    30.6641    40.7025
     23  H    Isotropic =    32.8236   Anisotropy =    11.5048
   XX=    30.5635   YX=    -0.7610   ZX=     1.0515
   XY=    -0.6043   YY=    32.4049   ZY=    -6.0464
   XZ=     2.0083   YZ=    -6.1111   ZZ=    35.5023
   Eigenvalues:    27.6221    30.3551    40.4934
     24  H    Isotropic =    35.4561   Anisotropy =    15.7327
   XX=    29.7465   YX=     3.1157   ZX=    -0.2950
   XY=     3.6602   YY=    38.5510   ZY=    -6.1639
   XZ=    -1.0589   YZ=    -8.0370   ZZ=    38.0707
   Eigenvalues:    28.1253    32.2984    45.9446
     25  H    Isotropic =    32.4711   Anisotropy =    12.5111
   XX=    33.2053   YX=    -3.7507   ZX=    -3.5703
   XY=    -3.6543   YY=    31.3348   ZY=     5.3710
   XZ=    -3.5980   YZ=     4.9913   ZZ=    32.8731
   Eigenvalues:    26.8110    29.7904    40.8118
     26  H    Isotropic =    32.6616   Anisotropy =     9.0512
   XX=    30.4749   YX=    -2.2913   ZX=    -2.0875
   XY=    -2.4515   YY=    29.4917   ZY=     0.5123
   XZ=    -1.9925   YZ=     0.7264   ZZ=    38.0183
   Eigenvalues:    27.4945    31.7946    38.6957
     27  H    Isotropic =    32.6209   Anisotropy =    10.0936
   XX=    32.3452   YX=     3.9096   ZX=     2.5208
   XY=     3.5601   YY=    37.2475   ZY=    -2.2245
   XZ=     2.2625   YZ=    -2.4620   ZZ=    28.2701
   Eigenvalues:    25.8793    32.6335    39.3500
     28  H    Isotropic =    32.5203   Anisotropy =    14.8362
   XX=    35.8677   YX=    -4.8239   ZX=     4.6236
   XY=    -4.7673   YY=    31.6614   ZY=    -4.6959
   XZ=     4.7020   YZ=    -4.6587   ZZ=    30.0317
   Eigenvalues:    26.0536    29.0962    42.4110
     29  H    Isotropic =    32.0701   Anisotropy =     8.9785
   XX=    31.5903   YX=     0.6362   ZX=     1.5405
   XY=     0.7481   YY=    32.2647   ZY=     5.3065
   XZ=     1.3819   YZ=     5.4624   ZZ=    32.3552
   Eigenvalues:    26.8614    31.2932    38.0557
     30  H    Isotropic =    32.4736   Anisotropy =    12.0525
   XX=    33.2513   YX=     3.8202   ZX=    -2.1674
   XY=     3.8590   YY=    32.7946   ZY=    -6.1148
   XZ=    -2.3961   YZ=    -5.3020   ZZ=    31.3751
   Eigenvalues:    26.2041    30.7082    40.5086
     31  H    Isotropic =    32.4633   Anisotropy =    14.9270
   XX=    41.6371   YX=    -1.5576   ZX=     2.9061
   XY=    -1.4844   YY=    28.8614   ZY=    -1.0395
   XZ=     2.9764   YZ=    -1.0951   ZZ=    26.8914
   Eigenvalues:    26.1019    28.8733    42.4147
 End of Minotr Frequency-dependent properties file   721 does not exist.
 End of Minotr Frequency-dependent properties file   722 does not exist.

 **********************************************************************

            Population analysis using the SCF density.

 **********************************************************************

 Orbital symmetries:
       Occupied  (A) (A) (A) (A) (A) (A) (A) (A) (A) (A) (A) (A)
                 (A) (A) (A) (A) (A) (A) (A) (A) (A) (A) (A) (A)
                 (A) (A) (A) (A) (A) (A) (A) (A) (A) (A) (A) (A)
                 (A) (A) (A) (A) (A) (A) (A) (A)
       Virtual   (A) (A) (A) (A) (A) (A) (A) (A) (A) (A) (A) (A)
                 (A) (A) (A) (A) (A) (A) (A) (A) (A) (A) (A) (A)
                 (A) (A) (A) (A) (A) (A) (A)
 The electronic state is 1-A.
 Alpha  occ. eigenvalues --  -20.23762 -11.08594 -11.04752 -11.04504 -11.04289
 Alpha  occ. eigenvalues --  -11.03802 -11.03762 -11.03635 -11.03213 -11.02908
 Alpha  occ. eigenvalues --  -11.02320  -1.27833  -1.08294  -1.03578  -0.96867
 Alpha  occ. eigenvalues --   -0.94585  -0.88717  -0.87859  -0.80579  -0.78622
 Alpha  occ. eigenvalues --   -0.73074  -0.69202  -0.62417  -0.61368  -0.59410
 Alpha  occ. eigenvalues --   -0.56827  -0.54757  -0.54066  -0.53711  -0.52377
 Alpha  occ. eigenvalues --   -0.51108  -0.50054  -0.49600  -0.48323  -0.47562
 Alpha  occ. eigenvalues --   -0.45681  -0.44211  -0.42998  -0.42101  -0.41635
 Alpha  occ. eigenvalues --   -0.39580  -0.39116  -0.36117  -0.32393
 Alpha virt. eigenvalues --    0.53807   0.54680   0.56992   0.59846   0.60566
 Alpha virt. eigenvalues --    0.61606   0.61995   0.64572   0.65207   0.65508
 Alpha virt. eigenvalues --    0.68046   0.68505   0.70759   0.71308   0.71851
 Alpha virt. eigenvalues --    0.72297   0.73072   0.74856   0.75137   0.75739
 Alpha virt. eigenvalues --    0.77022   0.77970   0.78808   0.79420   0.80499
 Alpha virt. eigenvalues --    0.80812   0.81964   0.82900   0.85537   0.86249
 Alpha virt. eigenvalues --    0.87118
          Condensed to atoms (all electrons):
              1          2          3          4          5          6
     1  C    4.741397   0.364941   0.000035   0.000748   0.000013  -0.024934
     2  C    0.364941   4.746962  -0.019527  -0.022157  -0.002495   0.362996
     3  C    0.000035  -0.019527   4.740778  -0.020282   0.355672  -0.008257
     4  C    0.000748  -0.022157  -0.020282   4.759933   0.357036   0.363304
     5  C    0.000013  -0.002495   0.355672   0.357036   4.795509  -0.020966
     6  C   -0.024934   0.362996  -0.008257   0.363304  -0.020966   4.757244
     7  C   -0.024338   0.359386   0.358074  -0.006201  -0.024349  -0.022088
     8  O   -0.000001   0.000258   0.269671   0.000233  -0.017672   0.000006
     9  C    0.000000   0.000004  -0.018602  -0.021323   0.357979   0.000291
    10  C    0.000000   0.000005  -0.001787  -0.001633  -0.020232  -0.000363
    11  C    0.000000   0.000000  -0.001146   0.000621  -0.021199  -0.000005
    12  H    0.382604  -0.020192   0.000015  -0.000018  -0.000001   0.001299
    13  H    0.382321  -0.020153  -0.000012   0.000014   0.000000  -0.002246
    14  H    0.382138  -0.020758   0.000003   0.000014   0.000007  -0.002307
    15  H   -0.024881   0.383313   0.001211  -0.000294   0.000005  -0.023793
    16  H    0.000054  -0.001496   0.378864   0.000151  -0.022911  -0.000106
    17  H   -0.000016   0.001248   0.000940   0.382724  -0.020272  -0.021132
    18  H    0.000007  -0.002475   0.000571   0.381764  -0.022323  -0.023946
    19  H    0.000000   0.000064  -0.024298  -0.024291   0.379258   0.001243
    20  H   -0.004833  -0.022159  -0.000082  -0.023227  -0.001908   0.382023
    21  H   -0.000283  -0.021484   0.000071  -0.021147   0.001192   0.383029
    22  H   -0.005543  -0.019827  -0.020679   0.000051   0.001161   0.001053
    23  H    0.001334  -0.021701  -0.023915  -0.000025  -0.002533   0.000435
    24  H    0.000000  -0.000006  -0.042105  -0.000003  -0.003119   0.000003
    25  H    0.000000  -0.000001   0.001061  -0.002742  -0.023560   0.000020
    26  H    0.000000   0.000001  -0.000606   0.000028  -0.001538  -0.000042
    27  H    0.000000   0.000003   0.000032  -0.000373  -0.001488  -0.000682
    28  H    0.000000   0.000000   0.000015   0.000011   0.001108   0.000008
    29  H    0.000000   0.000000  -0.000165  -0.000004  -0.001074   0.000000
    30  H    0.000000   0.000000  -0.000006   0.000017  -0.002534   0.000000
    31  H    0.000000   0.000000   0.000001  -0.000014   0.001141   0.000000
              7          8          9         10         11         12
     1  C   -0.024338  -0.000001   0.000000   0.000000   0.000000   0.382604
     2  C    0.359386   0.000258   0.000004   0.000005   0.000000  -0.020192
     3  C    0.358074   0.269671  -0.018602  -0.001787  -0.001146   0.000015
     4  C   -0.006201   0.000233  -0.021323  -0.001633   0.000621  -0.000018
     5  C   -0.024349  -0.017672   0.357979  -0.020232  -0.021199  -0.000001
     6  C   -0.022088   0.000006   0.000291  -0.000363  -0.000005   0.001299
     7  C    4.786928  -0.020324   0.000581   0.000008   0.000002  -0.002357
     8  O   -0.020324   7.845604   0.000051   0.000011  -0.000790   0.000000
     9  C    0.000581   0.000051   4.741067   0.364255   0.364160   0.000000
    10  C    0.000008   0.000011   0.364255   4.744155  -0.026267   0.000000
    11  C    0.000002  -0.000790   0.364160  -0.026267   4.742312   0.000000
    12  H   -0.002357   0.000000   0.000000   0.000000   0.000000   0.630810
    13  H    0.001297   0.000000   0.000000   0.000000   0.000000  -0.021712
    14  H   -0.001962  -0.000001   0.000000   0.000000   0.000000  -0.021800
    15  H   -0.024729  -0.000005   0.000000   0.000000   0.000000  -0.002588
    16  H   -0.025098  -0.018993  -0.002977  -0.000584  -0.000039   0.000006
    17  H    0.000041  -0.000003  -0.005321  -0.000395   0.000040   0.000000
    18  H   -0.000126  -0.000003   0.001203   0.000010  -0.000015   0.000000
    19  H   -0.000648  -0.002412  -0.025110   0.001192  -0.002587   0.000000
    20  H   -0.000088   0.000001   0.000121  -0.000530  -0.000003   0.000062
    21  H    0.001174   0.000000  -0.000012   0.000007   0.000000  -0.000018
    22  H    0.382618  -0.000763  -0.000012   0.000000   0.000000   0.000057
    23  H    0.379799  -0.001161   0.000007   0.000000   0.000000   0.000051
    24  H   -0.003165   0.257420   0.000000  -0.000002   0.000031   0.000000
    25  H   -0.000015  -0.000010   0.381711  -0.025009  -0.025170   0.000000
    26  H   -0.000006   0.000005  -0.020287   0.382287  -0.001996   0.000000
    27  H   -0.000002   0.000000  -0.019887   0.382556   0.001336   0.000000
    28  H    0.000000   0.000000  -0.019784   0.382336  -0.002745   0.000000
    29  H    0.000002  -0.000077  -0.020132  -0.002703   0.382820   0.000000
    30  H   -0.000002  -0.000086  -0.020297   0.001323   0.382252   0.000000
    31  H    0.000000   0.000017  -0.020144  -0.001912   0.381841   0.000000
             13         14         15         16         17         18
     1  C    0.382321   0.382138  -0.024881   0.000054  -0.000016   0.000007
     2  C   -0.020153  -0.020758   0.383313  -0.001496   0.001248  -0.002475
     3  C   -0.000012   0.000003   0.001211   0.378864   0.000940   0.000571
     4  C    0.000014   0.000014  -0.000294   0.000151   0.382724   0.381764
     5  C    0.000000   0.000007   0.000005  -0.022911  -0.020272  -0.022323
     6  C   -0.002246  -0.002307  -0.023793  -0.000106  -0.021132  -0.023946
     7  C    0.001297  -0.001962  -0.024729  -0.025098   0.000041  -0.000126
     8  O    0.000000  -0.000001  -0.000005  -0.018993  -0.000003  -0.000003
     9  C    0.000000   0.000000   0.000000  -0.002977  -0.005321   0.001203
    10  C    0.000000   0.000000   0.000000  -0.000584  -0.000395   0.000010
    11  C    0.000000   0.000000   0.000000  -0.000039   0.000040  -0.000015
    12  H   -0.021712  -0.021800  -0.002588   0.000006   0.000000   0.000000
    13  H    0.630489  -0.021647  -0.002225  -0.000007  -0.000001   0.000000
    14  H   -0.021647   0.631388   0.001939   0.000016  -0.000001  -0.000001
    15  H   -0.002225   0.001939   0.653360  -0.000006  -0.000019   0.000331
    16  H   -0.000007   0.000016  -0.000006   0.629486  -0.000023  -0.000022
    17  H   -0.000001  -0.000001  -0.000019  -0.000023   0.637269  -0.024128
    18  H    0.000000  -0.000001   0.000331  -0.000022  -0.024128   0.650423
    19  H    0.000000   0.000000   0.000000   0.001694   0.000822  -0.007422
    20  H   -0.000097   0.000338   0.001876  -0.000512  -0.002100   0.002048
    21  H    0.000165   0.000012  -0.005152   0.000004  -0.002382  -0.002295
    22  H    0.000083   0.000032   0.000654  -0.002258   0.000001   0.000004
    23  H   -0.000038   0.000002  -0.006770   0.001927   0.000002  -0.000309
    24  H    0.000000   0.000000   0.000000   0.003580  -0.000001   0.000002
    25  H    0.000000   0.000000   0.000000   0.000018   0.000089   0.000051
    26  H    0.000000   0.000000   0.000000  -0.000465   0.000027  -0.000003
    27  H    0.000000   0.000000   0.000000   0.000031  -0.000228   0.000005
    28  H    0.000000   0.000000   0.000000  -0.000014  -0.000022   0.000000
    29  H    0.000000   0.000000   0.000000  -0.000077   0.000000   0.000000
    30  H    0.000000   0.000000   0.000000   0.000012   0.000002  -0.000001
    31  H    0.000000   0.000000   0.000000  -0.000005  -0.000003   0.000000
             19         20         21         22         23         24
     1  C    0.000000  -0.004833  -0.000283  -0.005543   0.001334   0.000000
     2  C    0.000064  -0.022159  -0.021484  -0.019827  -0.021701  -0.000006
     3  C   -0.024298  -0.000082   0.000071  -0.020679  -0.023915  -0.042105
     4  C   -0.024291  -0.023227  -0.021147   0.000051  -0.000025  -0.000003
     5  C    0.379258  -0.001908   0.001192   0.001161  -0.002533  -0.003119
     6  C    0.001243   0.382023   0.383029   0.001053   0.000435   0.000003
     7  C   -0.000648  -0.000088   0.001174   0.382618   0.379799  -0.003165
     8  O   -0.002412   0.000001   0.000000  -0.000763  -0.001161   0.257420
     9  C   -0.025110   0.000121  -0.000012  -0.000012   0.000007   0.000000
    10  C    0.001192  -0.000530   0.000007   0.000000   0.000000  -0.000002
    11  C   -0.002587  -0.000003   0.000000   0.000000   0.000000   0.000031
    12  H    0.000000   0.000062  -0.000018   0.000057   0.000051   0.000000
    13  H    0.000000  -0.000097   0.000165   0.000083  -0.000038   0.000000
    14  H    0.000000   0.000338   0.000012   0.000032   0.000002   0.000000
    15  H    0.000000   0.001876  -0.005152   0.000654  -0.006770   0.000000
    16  H    0.001694  -0.000512   0.000004  -0.002258   0.001927   0.003580
    17  H    0.000822  -0.002100  -0.002382   0.000001   0.000002  -0.000001
    18  H   -0.007422   0.002048  -0.002295   0.000004  -0.000309   0.000002
    19  H    0.663523  -0.000002  -0.000034  -0.000020   0.000289   0.000921
    20  H   -0.000002   0.643508  -0.023882  -0.000013  -0.000024  -0.000001
    21  H   -0.000034  -0.023882   0.639716  -0.000025  -0.000021   0.000000
    22  H   -0.000020  -0.000013  -0.000025   0.629522  -0.025148  -0.000039
    23  H    0.000289  -0.000024  -0.000021  -0.025148   0.655265   0.000704
    24  H    0.000921  -0.000001   0.000000  -0.000039   0.000704   0.610097
    25  H   -0.002843   0.000008  -0.000001   0.000000  -0.000001  -0.000002
    26  H   -0.000003  -0.000080   0.000001   0.000001   0.000000  -0.000002
    27  H    0.000014  -0.000422   0.000023   0.000000   0.000000   0.000000
    28  H   -0.000032   0.000009   0.000000   0.000000   0.000000   0.000000
    29  H    0.000008   0.000000   0.000000   0.000000   0.000000  -0.000037
    30  H    0.000260   0.000000   0.000000   0.000000   0.000000  -0.000048
    31  H    0.000028   0.000000   0.000000   0.000000   0.000000  -0.000002
             25         26         27         28         29         30
     1  C    0.000000   0.000000   0.000000   0.000000   0.000000   0.000000
     2  C   -0.000001   0.000001   0.000003   0.000000   0.000000   0.000000
     3  C    0.001061  -0.000606   0.000032   0.000015  -0.000165  -0.000006
     4  C   -0.002742   0.000028  -0.000373   0.000011  -0.000004   0.000017
     5  C   -0.023560  -0.001538  -0.001488   0.001108  -0.001074  -0.002534
     6  C    0.000020  -0.000042  -0.000682   0.000008   0.000000   0.000000
     7  C   -0.000015  -0.000006  -0.000002   0.000000   0.000002  -0.000002
     8  O   -0.000010   0.000005   0.000000   0.000000  -0.000077  -0.000086
     9  C    0.381711  -0.020287  -0.019887  -0.019784  -0.020132  -0.020297
    10  C   -0.025009   0.382287   0.382556   0.382336  -0.002703   0.001323
    11  C   -0.025170  -0.001996   0.001336  -0.002745   0.382820   0.382252
    12  H    0.000000   0.000000   0.000000   0.000000   0.000000   0.000000
    13  H    0.000000   0.000000   0.000000   0.000000   0.000000   0.000000
    14  H    0.000000   0.000000   0.000000   0.000000   0.000000   0.000000
    15  H    0.000000   0.000000   0.000000   0.000000   0.000000   0.000000
    16  H    0.000018  -0.000465   0.000031  -0.000014  -0.000077   0.000012
    17  H    0.000089   0.000027  -0.000228  -0.000022   0.000000   0.000002
    18  H    0.000051  -0.000003   0.000005   0.000000   0.000000  -0.000001
    19  H   -0.002843  -0.000003   0.000014  -0.000032   0.000008   0.000260
    20  H    0.000008  -0.000080  -0.000422   0.000009   0.000000   0.000000
    21  H   -0.000001   0.000001   0.000023   0.000000   0.000000   0.000000
    22  H    0.000000   0.000001   0.000000   0.000000   0.000000   0.000000
    23  H   -0.000001   0.000000   0.000000   0.000000   0.000000   0.000000
    24  H   -0.000002  -0.000002   0.000000   0.000000  -0.000037  -0.000048
    25  H    0.656995   0.001921  -0.002475  -0.002355   0.001938  -0.001688
    26  H    0.001921   0.630824  -0.021828  -0.021896   0.000365   0.000006
    27  H   -0.002475  -0.021828   0.632493  -0.022160   0.000019  -0.000037
    28  H   -0.002355  -0.021896  -0.022160   0.630322  -0.000036   0.000037
    29  H    0.001938   0.000365   0.000019  -0.000036   0.617877  -0.020958
    30  H   -0.001688   0.000006  -0.000037   0.000037  -0.020958   0.632240
    31  H   -0.003426  -0.000005   0.000018   0.000091  -0.022149  -0.021939
             31
     1  C    0.000000
     2  C    0.000000
     3  C    0.000001
     4  C   -0.000014
     5  C    0.001141
     6  C    0.000000
     7  C    0.000000
     8  O    0.000017
     9  C   -0.020144
    10  C   -0.001912
    11  C    0.381841
    12  H    0.000000
    13  H    0.000000
    14  H    0.000000
    15  H    0.000000
    16  H   -0.000005
    17  H   -0.000003
    18  H    0.000000
    19  H    0.000028
    20  H    0.000000
    21  H    0.000000
    22  H    0.000000
    23  H    0.000000
    24  H   -0.000002
    25  H   -0.003426
    26  H   -0.000005
    27  H    0.000018
    28  H    0.000091
    29  H   -0.022149
    30  H   -0.021939
    31  H    0.635715
 Mulliken atomic charges:
              1
     1  C   -0.170762
     2  C   -0.024751
     3  C    0.074455
     4  C   -0.102912
     5  C   -0.039906
     6  C   -0.102085
     7  C   -0.114415
     8  O   -0.310972
     9  C   -0.017541
    10  C   -0.176726
    11  C   -0.173450
    12  H    0.053782
    13  H    0.053771
    14  H    0.052588
    15  H    0.047774
    16  H    0.059751
    17  H    0.052842
    18  H    0.046650
    19  H    0.040386
    20  H    0.049971
    21  H    0.051344
    22  H    0.059090
    23  H    0.041833
    24  H    0.175775
    25  H    0.045486
    26  H    0.053290
    27  H    0.053051
    28  H    0.055107
    29  H    0.064382
    30  H    0.051449
    31  H    0.050746
 Sum of Mulliken atomic charges =   0.00000
 Mulliken charges with hydrogens summed into heavy atoms:
              1
     1  C   -0.010621
     2  C    0.023023
     3  C    0.134205
     4  C   -0.003421
     5  C    0.000480
     6  C   -0.000771
     7  C   -0.013491
     8  O   -0.135197
     9  C    0.027945
    10  C   -0.015278
    11  C   -0.006874
 Sum of Mulliken charges with hydrogens summed into heavy atoms =   0.00000
 Electronic spatial extent (au):  <R**2>=           2026.9332
 Charge=              0.0000 electrons
 Dipole moment (field-independent basis, Debye):
    X=             -0.6285    Y=             -0.7296    Z=             -1.1928  Tot=              1.5330
 Quadrupole moment (field-independent basis, Debye-Ang):
   XX=            -68.4670   YY=            -69.6425   ZZ=            -66.5985
   XY=             -1.6182   XZ=             -0.6558   YZ=             -3.1464
 Traceless Quadrupole moment (field-independent basis, Debye-Ang):
   XX=             -0.2310   YY=             -1.4065   ZZ=              1.6375
   XY=             -1.6182   XZ=             -0.6558   YZ=             -3.1464
 Octapole moment (field-independent basis, Debye-Ang**2):
  XXX=              3.4498  YYY=              8.2104  ZZZ=             -0.2191  XYY=             -2.4384
  XXY=              1.3764  XXZ=             -1.7083  XZZ=              2.1756  YZZ=              7.3357
  YYZ=             -9.1002  XYZ=             -2.9397
 Hexadecapole moment (field-independent basis, Debye-Ang**3):
 XXXX=          -1626.2725 YYYY=           -627.2917 ZZZZ=           -328.7772 XXXY=             -2.1141
 XXXZ=              7.6111 YYYX=              4.0972 YYYZ=            -18.0577 ZZZX=              2.5810
 ZZZY=             -0.3661 XXYY=           -371.3727 XXZZ=           -327.6969 YYZZ=           -155.6581
 XXYZ=             -0.9267 YYXZ=             -8.0601 ZZXY=              4.8163
 N-N= 6.985382888136D+02 E-N=-2.469048502522D+03  KE= 4.555525695444D+02
 ******************************Gaussian NBO Version 3.1******************************
             N A T U R A L   A T O M I C   O R B I T A L   A N D
          N A T U R A L   B O N D   O R B I T A L   A N A L Y S I S
 ******************************Gaussian NBO Version 3.1******************************
       /RESON  / : Allow strongly delocalized NBO set
       /NLMO   / : Form Natural Localized Molecular Orbitals
       /NMR /    : Analyze NMR Sheilding Tensor 

 Analyzing the SCF density

 Job title: comment                                                         

 Storage needed:     19864 in NPA,     23691 in NBO,     45933 in NLMO (  33549317 available)


 NATURAL POPULATIONS:  Natural atomic orbital occupancies 
                                                          
   NAO  Atom  No  lang   Type(AO)    Occupancy      Energy
 ----------------------------------------------------------
     1    C    1  S      Cor( 1S)     1.99998     -10.96572
     2    C    1  S      Val( 2S)     1.08072      -0.18297
     3    C    1  px     Val( 2p)     1.01579       0.08411
     4    C    1  py     Val( 2p)     1.02850       0.08315
     5    C    1  pz     Val( 2p)     1.00073       0.08762

     6    C    2  S      Cor( 1S)     1.99997     -10.99039
     7    C    2  S      Val( 2S)     1.08081      -0.19420
     8    C    2  px     Val( 2p)     0.97143       0.10325
     9    C    2  py     Val( 2p)     0.95298       0.11178
    10    C    2  pz     Val( 2p)     0.98075       0.10257

    11    C    3  S      Cor( 1S)     1.99989     -11.03497
    12    C    3  S      Val( 2S)     1.08738      -0.21643
    13    C    3  px     Val( 2p)     0.92334       0.09992
    14    C    3  py     Val( 2p)     0.84918       0.11762
    15    C    3  pz     Val( 2p)     0.99949       0.08127

    16    C    4  S      Cor( 1S)     1.99996     -10.97672
    17    C    4  S      Val( 2S)     1.08609      -0.19256
    18    C    4  px     Val( 2p)     0.98429       0.09514
    19    C    4  py     Val( 2p)     0.99724       0.09422
    20    C    4  pz     Val( 2p)     0.99763       0.09142

    21    C    5  S      Cor( 1S)     1.99995     -10.98895
    22    C    5  S      Val( 2S)     1.10637      -0.21525
    23    C    5  px     Val( 2p)     0.96204       0.10493
    24    C    5  py     Val( 2p)     0.96969       0.10049
    25    C    5  pz     Val( 2p)     0.98022       0.09811

    26    C    6  S      Cor( 1S)     1.99996     -10.97566
    27    C    6  S      Val( 2S)     1.08353      -0.18942
    28    C    6  px     Val( 2p)     0.98521       0.09603
    29    C    6  py     Val( 2p)     0.98874       0.09376
    30    C    6  pz     Val( 2p)     1.00741       0.09231

    31    C    7  S      Cor( 1S)     1.99996     -10.97480
    32    C    7  S      Val( 2S)     1.09380      -0.19943
    33    C    7  px     Val( 2p)     0.98843       0.08737
    34    C    7  py     Val( 2p)     0.99151       0.09297
    35    C    7  pz     Val( 2p)     1.01746       0.08487

    36    O    8  S      Cor( 1S)     1.99999     -20.14154
    37    O    8  S      Val( 2S)     1.74918      -0.99765
    38    O    8  px     Val( 2p)     1.82504      -0.30938
    39    O    8  py     Val( 2p)     1.36713      -0.11844
    40    O    8  pz     Val( 2p)     1.39019      -0.14324

    41    C    9  S      Cor( 1S)     1.99996     -10.98921
    42    C    9  S      Val( 2S)     1.08602      -0.19495
    43    C    9  px     Val( 2p)     0.95597       0.11113
    44    C    9  py     Val( 2p)     0.96503       0.11035
    45    C    9  pz     Val( 2p)     0.96954       0.11189

    46    C   10  S      Cor( 1S)     1.99997     -10.96267
    47    C   10  S      Val( 2S)     1.07982      -0.17977
    48    C   10  px     Val( 2p)     1.03089       0.08303
    49    C   10  py     Val( 2p)     1.01592       0.08726
    50    C   10  pz     Val( 2p)     1.00639       0.08903

    51    C   11  S      Cor( 1S)     1.99997     -10.95696
    52    C   11  S      Val( 2S)     1.08097      -0.17465
    53    C   11  px     Val( 2p)     1.00719       0.09362
    54    C   11  py     Val( 2p)     1.01081       0.09420
    55    C   11  pz     Val( 2p)     1.03131       0.09144

    56    H   12  S      Val( 1S)     0.96366       0.07432

    57    H   13  S      Val( 1S)     0.96364       0.07353

    58    H   14  S      Val( 1S)     0.96479       0.07284

    59    H   15  S      Val( 1S)     0.97651       0.06508

    60    H   16  S      Val( 1S)     0.97565       0.05870

    61    H   17  S      Val( 1S)     0.96818       0.07055

    62    H   18  S      Val( 1S)     0.97409       0.06603

    63    H   19  S      Val( 1S)     0.98408       0.05643

    64    H   20  S      Val( 1S)     0.97111       0.07085

    65    H   21  S      Val( 1S)     0.96914       0.06909

    66    H   22  S      Val( 1S)     0.96183       0.07345

    67    H   23  S      Val( 1S)     0.97775       0.05953

    68    H   24  S      Val( 1S)     0.81202       0.07521

    69    H   25  S      Val( 1S)     0.97975       0.06602

    70    H   26  S      Val( 1S)     0.96399       0.07766

    71    H   27  S      Val( 1S)     0.96429       0.07734

    72    H   28  S      Val( 1S)     0.96180       0.07657

    73    H   29  S      Val( 1S)     0.95418       0.09285

    74    H   30  S      Val( 1S)     0.96557       0.08093

    75    H   31  S      Val( 1S)     0.96620       0.07893


 Summary of Natural Population Analysis:                  
                                                          
                                       Natural Population 
                Natural  -----------------------------------------------
    Atom  No    Charge         Core      Valence    Rydberg      Total
 -----------------------------------------------------------------------
      C    1   -0.12572      1.99998     4.12574    0.00000     6.12572
      C    2    0.01407      1.99997     3.98597    0.00000     5.98593
      C    3    0.14072      1.99989     3.85939    0.00000     5.85928
      C    4   -0.06521      1.99996     4.06526    0.00000     6.06521
      C    5   -0.01827      1.99995     4.01832    0.00000     6.01827
      C    6   -0.06485      1.99996     4.06489    0.00000     6.06485
      C    7   -0.09116      1.99996     4.09120    0.00000     6.09116
      O    8   -0.33154      1.99999     6.33155    0.00000     8.33154
      C    9    0.02347      1.99996     3.97657    0.00000     5.97653
      C   10   -0.13299      1.99997     4.13302    0.00000     6.13299
      C   11   -0.13026      1.99997     4.13029    0.00000     6.13026
      H   12    0.03634      0.00000     0.96366    0.00000     0.96366
      H   13    0.03636      0.00000     0.96364    0.00000     0.96364
      H   14    0.03521      0.00000     0.96479    0.00000     0.96479
      H   15    0.02349      0.00000     0.97651    0.00000     0.97651
      H   16    0.02435      0.00000     0.97565    0.00000     0.97565
      H   17    0.03182      0.00000     0.96818    0.00000     0.96818
      H   18    0.02591      0.00000     0.97409    0.00000     0.97409
      H   19    0.01592      0.00000     0.98408    0.00000     0.98408
      H   20    0.02889      0.00000     0.97111    0.00000     0.97111
      H   21    0.03086      0.00000     0.96914    0.00000     0.96914
      H   22    0.03817      0.00000     0.96183    0.00000     0.96183
      H   23    0.02225      0.00000     0.97775    0.00000     0.97775
      H   24    0.18798      0.00000     0.81202    0.00000     0.81202
      H   25    0.02025      0.00000     0.97975    0.00000     0.97975
      H   26    0.03601      0.00000     0.96399    0.00000     0.96399
      H   27    0.03571      0.00000     0.96429    0.00000     0.96429
      H   28    0.03820      0.00000     0.96180    0.00000     0.96180
      H   29    0.04582      0.00000     0.95418    0.00000     0.95418
      H   30    0.03443      0.00000     0.96557    0.00000     0.96557
      H   31    0.03380      0.00000     0.96620    0.00000     0.96620
 =======================================================================
   * Total *    0.00000     21.99956    66.00044    0.00000    88.00000

                                 Natural Population      
 --------------------------------------------------------
   Core                      21.99956 ( 99.9980% of  22)
   Valence                   66.00044 (100.0007% of  66)
   Natural Minimal Basis     88.00000 (100.0000% of  88)
   Natural Rydberg Basis      0.00000 (  0.0000% of  88)
 --------------------------------------------------------

    Atom  No          Natural Electron Configuration
 ----------------------------------------------------------------------------
      C    1      [core]2S( 1.08)2p( 3.05)
      C    2      [core]2S( 1.08)2p( 2.91)
      C    3      [core]2S( 1.09)2p( 2.77)
      C    4      [core]2S( 1.09)2p( 2.98)
      C    5      [core]2S( 1.11)2p( 2.91)
      C    6      [core]2S( 1.08)2p( 2.98)
      C    7      [core]2S( 1.09)2p( 3.00)
      O    8      [core]2S( 1.75)2p( 4.58)
      C    9      [core]2S( 1.09)2p( 2.89)
      C   10      [core]2S( 1.08)2p( 3.05)
      C   11      [core]2S( 1.08)2p( 3.05)
      H   12            1S( 0.96)
      H   13            1S( 0.96)
      H   14            1S( 0.96)
      H   15            1S( 0.98)
      H   16            1S( 0.98)
      H   17            1S( 0.97)
      H   18            1S( 0.97)
      H   19            1S( 0.98)
      H   20            1S( 0.97)
      H   21            1S( 0.97)
      H   22            1S( 0.96)
      H   23            1S( 0.98)
      H   24            1S( 0.81)
      H   25            1S( 0.98)
      H   26            1S( 0.96)
      H   27            1S( 0.96)
      H   28            1S( 0.96)
      H   29            1S( 0.95)
      H   30            1S( 0.97)
      H   31            1S( 0.97)


 NATURAL BOND ORBITAL ANALYSIS:

                       Occupancies       Lewis Structure    Low   High
           Occ.    -------------------  -----------------   occ   occ
  Cycle   Thresh.   Lewis   Non-Lewis     CR  BD  3C  LP    (L)   (NL)   Dev
 =============================================================================
   1(1)    1.90    87.64115   0.35885     11  31   0   2     0      0    0.02
 -----------------------------------------------------------------------------

 Structure accepted: No low occupancy Lewis orbitals

 --------------------------------------------------------
   Core                     21.99955 ( 99.998% of  22)
   Valence Lewis            65.64160 ( 99.457% of  66)
  ==================       ============================
   Total Lewis              87.64115 ( 99.592% of  88)
  -----------------------------------------------------
   Valence non-Lewis         0.35885 (  0.408% of  88)
   Rydberg non-Lewis         0.00000 (  0.000% of  88)
  ==================       ============================
   Total non-Lewis           0.35885 (  0.408% of  88)
 --------------------------------------------------------


       (Occupancy)   Bond orbital/ Coefficients/ Hybrids
 ---------------------------------------------------------------------------------
     1. (1.99022) BD ( 1) C   1 - C   2  
                ( 50.84%)   0.7131* C   1 s( 25.71%)p 2.89( 74.29%)
                                            0.0001  0.5070  0.4815  0.0308 -0.7143
                ( 49.16%)   0.7011* C   2 s( 24.92%)p 3.01( 75.08%)
                                            0.0000  0.4992 -0.4588 -0.0272  0.7345
     2. (1.99491) BD ( 1) C   1 - H  12  
                ( 51.83%)   0.7199* C   1 s( 24.71%)p 3.05( 75.29%)
                                            0.0000  0.4971 -0.5295  0.6869  0.0256
                ( 48.17%)   0.6941* H  12 s(100.00%)
                                            1.0000
     3. (1.99508) BD ( 1) C   1 - H  13  
                ( 51.83%)   0.7199* C   1 s( 24.75%)p 3.04( 75.25%)
                                            0.0000  0.4975 -0.4747 -0.7261  0.0019
                ( 48.17%)   0.6940* H  13 s(100.00%)
                                            1.0000
     4. (1.99519) BD ( 1) C   1 - H  14  
                ( 51.80%)   0.7197* C   1 s( 24.82%)p 3.03( 75.18%)
                                            0.0000  0.4982  0.5124  0.0083  0.6994
                ( 48.20%)   0.6943* H  14 s(100.00%)
                                            1.0000
     5. (1.98509) BD ( 1) C   2 - C   6  
                ( 49.72%)   0.7051* C   2 s( 25.33%)p 2.95( 74.67%)
                                            0.0000  0.5033  0.5008 -0.7020 -0.0552
                ( 50.28%)   0.7091* C   6 s( 25.31%)p 2.95( 74.69%)
                                            0.0001  0.5031 -0.4654  0.7257  0.0611
     6. (1.98421) BD ( 1) C   2 - C   7  
                ( 49.36%)   0.7026* C   2 s( 25.27%)p 2.96( 74.73%)
                                            0.0000  0.5027  0.4911  0.7114 -0.0085
                ( 50.64%)   0.7116* C   7 s( 25.69%)p 2.89( 74.31%)
                                            0.0001  0.5068 -0.4618 -0.7263  0.0481
     7. (1.98639) BD ( 1) C   2 - H  15  
                ( 51.10%)   0.7148* C   2 s( 24.48%)p 3.08( 75.52%)
                                            0.0000  0.4948 -0.5454  0.0188 -0.6763
                ( 48.90%)   0.6993* H  15 s(100.00%)
                                            1.0000
     8. (1.98306) BD ( 1) C   3 - C   5  
                ( 49.91%)   0.7065* C   3 s( 25.71%)p 2.89( 74.29%)
                                            0.0001  0.5071  0.4027 -0.5649 -0.5114
                ( 50.09%)   0.7078* C   5 s( 25.61%)p 2.91( 74.39%)
                                            0.0000  0.5060 -0.4049  0.5368  0.5402
     9. (1.98765) BD ( 1) C   3 - C   7  
                ( 49.33%)   0.7023* C   3 s( 25.35%)p 2.94( 74.65%)
                                            0.0000  0.5035 -0.8125  0.1167 -0.2695
                ( 50.67%)   0.7119* C   7 s( 25.15%)p 2.98( 74.85%)
                                            0.0000  0.5015  0.8100 -0.1475  0.2658
    10. (1.98745) BD ( 1) C   3 - O   8  
                ( 41.14%)   0.6414* C   3 s( 22.43%)p 3.46( 77.57%)
                                           -0.0001  0.4736  0.4213  0.7717 -0.0511
                ( 58.86%)   0.7672* O   8 s( 16.55%)p 5.04( 83.45%)
                                            0.0000  0.4068 -0.4349 -0.8015 -0.0545
    11. (1.98571) BD ( 1) C   3 - H  16  
                ( 51.35%)   0.7166* C   3 s( 26.50%)p 2.77( 73.50%)
                                            0.0000  0.5148  0.0104 -0.2678  0.8144
                ( 48.65%)   0.6975* H  16 s(100.00%)
                                            1.0000
    12. (1.98368) BD ( 1) C   4 - C   5  
                ( 50.39%)   0.7099* C   4 s( 25.39%)p 2.94( 74.61%)
                                            0.0001  0.5039  0.5266  0.6104  0.3103
                ( 49.61%)   0.7044* C   5 s( 25.23%)p 2.96( 74.77%)
                                            0.0000  0.5023 -0.5355 -0.6346 -0.2413
    13. (1.99043) BD ( 1) C   4 - C   6  
                ( 50.03%)   0.7073* C   4 s( 25.32%)p 2.95( 74.68%)
                                            0.0000  0.5032 -0.6691 -0.1105  0.5356
                ( 49.97%)   0.7069* C   6 s( 25.21%)p 2.97( 74.79%)
                                            0.0000  0.5021  0.6792  0.1312 -0.5190
    14. (1.98976) BD ( 1) C   4 - H  17  
                ( 51.58%)   0.7182* C   4 s( 25.19%)p 2.97( 74.81%)
                                            0.0000  0.5019  0.4324 -0.7442 -0.0849
                ( 48.42%)   0.6958* H  17 s(100.00%)
                                            1.0000
    15. (1.99117) BD ( 1) C   4 - H  18  
                ( 51.28%)   0.7161* C   4 s( 24.09%)p 3.15( 75.91%)
                                            0.0000  0.4909 -0.2967  0.2477 -0.7808
                ( 48.72%)   0.6980* H  18 s(100.00%)
                                            1.0000
    16. (1.98035) BD ( 1) C   5 - C   9  
                ( 50.21%)   0.7086* C   5 s( 25.24%)p 2.96( 74.76%)
                                            0.0001  0.5024  0.6964 -0.3369  0.3861
                ( 49.79%)   0.7056* C   9 s( 25.40%)p 2.94( 74.60%)
                                            0.0001  0.5039 -0.7389  0.3425 -0.2875
    17. (1.98328) BD ( 1) C   5 - H  19  
                ( 50.66%)   0.7117* C   5 s( 23.92%)p 3.18( 76.08%)
                                            0.0000  0.4891  0.2534  0.4424 -0.7077
                ( 49.34%)   0.7024* H  19 s(100.00%)
                                            1.0000
    18. (1.99049) BD ( 1) C   6 - H  20  
                ( 51.49%)   0.7176* C   6 s( 24.69%)p 3.05( 75.31%)
                                            0.0000  0.4969  0.2798 -0.2314  0.7882
                ( 48.51%)   0.6965* H  20 s(100.00%)
                                            1.0000
    19. (1.99010) BD ( 1) C   6 - H  21  
                ( 51.50%)   0.7176* C   6 s( 24.80%)p 3.03( 75.20%)
                                            0.0000  0.4980 -0.4938 -0.6346 -0.3249
                ( 48.50%)   0.6964* H  21 s(100.00%)
                                            1.0000
    20. (1.98952) BD ( 1) C   7 - H  22  
                ( 51.90%)   0.7204* C   7 s( 25.28%)p 2.96( 74.72%)
                                            0.0000  0.5028 -0.3609  0.6129  0.4912
                ( 48.10%)   0.6936* H  22 s(100.00%)
                                            1.0000
    21. (1.99007) BD ( 1) C   7 - H  23  
                ( 51.10%)   0.7148* C   7 s( 23.88%)p 3.19( 76.12%)
                                            0.0000  0.4887  0.0191  0.2740 -0.8281
                ( 48.90%)   0.6993* H  23 s(100.00%)
                                            1.0000
    22. (1.98932) BD ( 1) O   8 - H  24  
                ( 59.45%)   0.7711* O   8 s( 16.85%)p 4.93( 83.15%)
                                            0.0000 -0.4105  0.0283 -0.2826  0.8665
                ( 40.55%)   0.6368* H  24 s(100.00%)
                                           -1.0000
    23. (1.99031) BD ( 1) C   9 - C  10  
                ( 48.92%)   0.6994* C   9 s( 25.23%)p 2.96( 74.77%)
                                            0.0000  0.5023 -0.1535 -0.4811  0.7019
                ( 51.08%)   0.7147* C  10 s( 25.88%)p 2.86( 74.12%)
                                            0.0001  0.5087  0.1083  0.5046 -0.6891
    24. (1.98946) BD ( 1) C   9 - C  11  
                ( 49.27%)   0.7019* C   9 s( 25.18%)p 2.97( 74.82%)
                                            0.0000  0.5018  0.5586  0.6309  0.1955
                ( 50.73%)   0.7122* C  11 s( 25.69%)p 2.89( 74.31%)
                                            0.0001  0.5068 -0.5947 -0.5971 -0.1813
    25. (1.98372) BD ( 1) C   9 - H  25  
                ( 50.88%)   0.7133* C   9 s( 24.19%)p 3.13( 75.81%)
                                            0.0000  0.4919  0.3441 -0.5032 -0.6217
                ( 49.12%)   0.7008* H  25 s(100.00%)
                                            1.0000
    26. (1.99462) BD ( 1) C  10 - H  26  
                ( 51.84%)   0.7200* C  10 s( 24.89%)p 3.02( 75.11%)
                                            0.0000  0.4989 -0.3513  0.4566  0.6475
                ( 48.16%)   0.6939* H  26 s(100.00%)
                                            1.0000
    27. (1.99455) BD ( 1) C  10 - H  27  
                ( 51.81%)   0.7198* C  10 s( 24.73%)p 3.04( 75.27%)
                                            0.0000  0.4973 -0.5235 -0.6623 -0.2001
                ( 48.19%)   0.6942* H  27 s(100.00%)
                                            1.0000
    28. (1.99413) BD ( 1) C  10 - H  28  
                ( 51.90%)   0.7204* C  10 s( 24.50%)p 3.08( 75.50%)
                                            0.0000  0.4950  0.7687 -0.3135  0.2567
                ( 48.10%)   0.6936* H  28 s(100.00%)
                                            1.0000
    29. (1.99568) BD ( 1) C  11 - H  29  
                ( 52.35%)   0.7236* C  11 s( 24.99%)p 3.00( 75.01%)
                                            0.0000  0.4999 -0.2517  0.4673  0.6843
                ( 47.65%)   0.6903* H  29 s(100.00%)
                                            1.0000
    30. (1.99504) BD ( 1) C  11 - H  30  
                ( 51.74%)   0.7193* C  11 s( 24.81%)p 3.03( 75.19%)
                                            0.0000  0.4981  0.1065  0.5240 -0.6826
                ( 48.26%)   0.6947* H  30 s(100.00%)
                                            1.0000
    31. (1.99456) BD ( 1) C  11 - H  31  
                ( 51.68%)   0.7189* C  11 s( 24.50%)p 3.08( 75.50%)
                                            0.0000  0.4950  0.7560 -0.3880  0.1814
                ( 48.32%)   0.6951* H  31 s(100.00%)
                                            1.0000
    32. (1.99997) CR ( 1) C   1           s(100.00%)
                                            1.0000  0.0000  0.0000  0.0000  0.0001
    33. (1.99997) CR ( 1) C   2           s(100.00%)
                                            1.0000  0.0000 -0.0001  0.0000  0.0000
    34. (1.99989) CR ( 1) C   3           s(100.00%)
                                            1.0000  0.0000  0.0000  0.0001  0.0001
    35. (1.99996) CR ( 1) C   4           s(100.00%)
                                            1.0000  0.0000  0.0000  0.0000 -0.0001
    36. (1.99995) CR ( 1) C   5           s(100.00%)
                                            1.0000  0.0000  0.0000  0.0000  0.0000
    37. (1.99996) CR ( 1) C   6           s(100.00%)
                                            1.0000  0.0000  0.0000 -0.0001  0.0000
    38. (1.99996) CR ( 1) C   7           s(100.00%)
                                            1.0000  0.0000  0.0000  0.0001  0.0000
    39. (1.99999) CR ( 1) O   8           s(100.00%)
                                            1.0000  0.0000  0.0000  0.0000  0.0000
    40. (1.99996) CR ( 1) C   9           s(100.00%)
                                            1.0000  0.0000  0.0001  0.0000  0.0000
    41. (1.99997) CR ( 1) C  10           s(100.00%)
                                            1.0000  0.0000  0.0000 -0.0001  0.0001
    42. (1.99997) CR ( 1) C  11           s(100.00%)
                                            1.0000  0.0000  0.0001  0.0000  0.0000
    43. (1.99338) LP ( 1) O   8           s( 66.60%)p 0.50( 33.40%)
                                            0.0000  0.8161  0.2386  0.2533  0.4614
    44. (1.97301) LP ( 2) O   8           s(  0.01%)p 1.00( 99.99%)
                                            0.0000  0.0072 -0.8678  0.4621  0.1824
    45. (0.00957) BD*( 1) C   1 - C   2  
                ( 49.16%)   0.7011* C   1 s( 25.71%)p 2.89( 74.29%)
                                           -0.0001 -0.5070 -0.4815 -0.0308  0.7143
                ( 50.84%)  -0.7131* C   2 s( 24.92%)p 3.01( 75.08%)
                                            0.0000 -0.4992  0.4588  0.0272 -0.7345
    46. (0.00508) BD*( 1) C   1 - H  12  
                ( 48.17%)   0.6941* C   1 s( 24.71%)p 3.05( 75.29%)
                                            0.0000 -0.4971  0.5295 -0.6869 -0.0256
                ( 51.83%)  -0.7199* H  12 s(100.00%)
                                           -1.0000
    47. (0.00512) BD*( 1) C   1 - H  13  
                ( 48.17%)   0.6940* C   1 s( 24.75%)p 3.04( 75.25%)
                                            0.0000 -0.4975  0.4747  0.7261 -0.0019
                ( 51.83%)  -0.7199* H  13 s(100.00%)
                                           -1.0000
    48. (0.00584) BD*( 1) C   1 - H  14  
                ( 48.20%)   0.6943* C   1 s( 24.82%)p 3.03( 75.18%)
                                            0.0000 -0.4982 -0.5124 -0.0083 -0.6994
                ( 51.80%)  -0.7197* H  14 s(100.00%)
                                           -1.0000
    49. (0.01608) BD*( 1) C   2 - C   6  
                ( 50.28%)   0.7091* C   2 s( 25.33%)p 2.95( 74.67%)
                                            0.0000  0.5033  0.5008 -0.7020 -0.0552
                ( 49.72%)  -0.7051* C   6 s( 25.31%)p 2.95( 74.69%)
                                            0.0001  0.5031 -0.4654  0.7257  0.0611
    50. (0.01645) BD*( 1) C   2 - C   7  
                ( 50.64%)   0.7116* C   2 s( 25.27%)p 2.96( 74.73%)
                                            0.0000  0.5027  0.4911  0.7114 -0.0085
                ( 49.36%)  -0.7026* C   7 s( 25.69%)p 2.89( 74.31%)
                                            0.0001  0.5068 -0.4618 -0.7263  0.0481
    51. (0.01012) BD*( 1) C   2 - H  15  
                ( 48.90%)   0.6993* C   2 s( 24.48%)p 3.08( 75.52%)
                                            0.0000 -0.4948  0.5454 -0.0188  0.6763
                ( 51.10%)  -0.7148* H  15 s(100.00%)
                                           -1.0000
    52. (0.03349) BD*( 1) C   3 - C   5  
                ( 50.09%)   0.7078* C   3 s( 25.71%)p 2.89( 74.29%)
                                            0.0001  0.5071  0.4027 -0.5649 -0.5114
                ( 49.91%)  -0.7065* C   5 s( 25.61%)p 2.91( 74.39%)
                                            0.0000  0.5060 -0.4049  0.5368  0.5402
    53. (0.02608) BD*( 1) C   3 - C   7  
                ( 50.67%)   0.7119* C   3 s( 25.35%)p 2.94( 74.65%)
                                            0.0000  0.5035 -0.8125  0.1167 -0.2695
                ( 49.33%)  -0.7023* C   7 s( 25.15%)p 2.98( 74.85%)
                                            0.0000  0.5015  0.8100 -0.1475  0.2658
    54. (0.02166) BD*( 1) C   3 - O   8  
                ( 58.86%)   0.7672* C   3 s( 22.43%)p 3.46( 77.57%)
                                           -0.0001  0.4736  0.4213  0.7717 -0.0511
                ( 41.14%)  -0.6414* O   8 s( 16.55%)p 5.04( 83.45%)
                                            0.0000  0.4068 -0.4349 -0.8015 -0.0545
    55. (0.01884) BD*( 1) C   3 - H  16  
                ( 48.65%)   0.6975* C   3 s( 26.50%)p 2.77( 73.50%)
                                            0.0000 -0.5148 -0.0104  0.2678 -0.8144
                ( 51.35%)  -0.7166* H  16 s(100.00%)
                                           -1.0000
    56. (0.01697) BD*( 1) C   4 - C   5  
                ( 49.61%)   0.7044* C   4 s( 25.39%)p 2.94( 74.61%)
                                           -0.0001 -0.5039 -0.5266 -0.6104 -0.3103
                ( 50.39%)  -0.7099* C   5 s( 25.23%)p 2.96( 74.77%)
                                            0.0000 -0.5023  0.5355  0.6346  0.2413
    57. (0.01099) BD*( 1) C   4 - C   6  
                ( 49.97%)   0.7069* C   4 s( 25.32%)p 2.95( 74.68%)
                                            0.0000 -0.5032  0.6691  0.1105 -0.5356
                ( 50.03%)  -0.7073* C   6 s( 25.21%)p 2.97( 74.79%)
                                            0.0000 -0.5021 -0.6792 -0.1312  0.5190
    58. (0.00933) BD*( 1) C   4 - H  17  
                ( 48.42%)   0.6958* C   4 s( 25.19%)p 2.97( 74.81%)
                                            0.0000 -0.5019 -0.4324  0.7442  0.0849
                ( 51.58%)  -0.7182* H  17 s(100.00%)
                                           -1.0000
    59. (0.00792) BD*( 1) C   4 - H  18  
                ( 48.72%)   0.6980* C   4 s( 24.09%)p 3.15( 75.91%)
                                            0.0000 -0.4909  0.2967 -0.2477  0.7808
                ( 51.28%)  -0.7161* H  18 s(100.00%)
                                           -1.0000
    60. (0.02233) BD*( 1) C   5 - C   9  
                ( 49.79%)   0.7056* C   5 s( 25.24%)p 2.96( 74.76%)
                                           -0.0001 -0.5024 -0.6964  0.3369 -0.3861
                ( 50.21%)  -0.7086* C   9 s( 25.40%)p 2.94( 74.60%)
                                           -0.0001 -0.5039  0.7389 -0.3425  0.2875
    61. (0.01083) BD*( 1) C   5 - H  19  
                ( 49.34%)   0.7024* C   5 s( 23.92%)p 3.18( 76.08%)
                                            0.0000 -0.4891 -0.2534 -0.4424  0.7077
                ( 50.66%)  -0.7117* H  19 s(100.00%)
                                           -1.0000
    62. (0.01084) BD*( 1) C   6 - H  20  
                ( 48.51%)   0.6965* C   6 s( 24.69%)p 3.05( 75.31%)
                                            0.0000 -0.4969 -0.2798  0.2314 -0.7882
                ( 51.49%)  -0.7176* H  20 s(100.00%)
                                           -1.0000
    63. (0.00759) BD*( 1) C   6 - H  21  
                ( 48.50%)   0.6964* C   6 s( 24.80%)p 3.03( 75.20%)
                                            0.0000 -0.4980  0.4938  0.6346  0.3249
                ( 51.50%)  -0.7176* H  21 s(100.00%)
                                           -1.0000
    64. (0.00923) BD*( 1) C   7 - H  22  
                ( 48.10%)   0.6936* C   7 s( 25.28%)p 2.96( 74.72%)
                                            0.0000 -0.5028  0.3609 -0.6129 -0.4912
                ( 51.90%)  -0.7204* H  22 s(100.00%)
                                           -1.0000
    65. (0.00893) BD*( 1) C   7 - H  23  
                ( 48.90%)   0.6993* C   7 s( 23.88%)p 3.19( 76.12%)
                                            0.0000 -0.4887 -0.0191 -0.2740  0.8281
                ( 51.10%)  -0.7148* H  23 s(100.00%)
                                           -1.0000
    66. (0.00910) BD*( 1) O   8 - H  24  
                ( 40.55%)   0.6368* O   8 s( 16.85%)p 4.93( 83.15%)
                                            0.0000  0.4105 -0.0283  0.2826 -0.8665
                ( 59.45%)  -0.7711* H  24 s(100.00%)
                                            1.0000
    67. (0.01105) BD*( 1) C   9 - C  10  
                ( 51.08%)   0.7147* C   9 s( 25.23%)p 2.96( 74.77%)
                                            0.0000  0.5023 -0.1535 -0.4811  0.7019
                ( 48.92%)  -0.6994* C  10 s( 25.88%)p 2.86( 74.12%)
                                            0.0001  0.5087  0.1083  0.5046 -0.6891
    68. (0.01046) BD*( 1) C   9 - C  11  
                ( 50.73%)   0.7122* C   9 s( 25.18%)p 2.97( 74.82%)
                                            0.0000  0.5018  0.5586  0.6309  0.1955
                ( 49.27%)  -0.7019* C  11 s( 25.69%)p 2.89( 74.31%)
                                            0.0001  0.5068 -0.5947 -0.5971 -0.1813
    69. (0.01065) BD*( 1) C   9 - H  25  
                ( 49.12%)   0.7008* C   9 s( 24.19%)p 3.13( 75.81%)
                                            0.0000 -0.4919 -0.3441  0.5032  0.6217
                ( 50.88%)  -0.7133* H  25 s(100.00%)
                                           -1.0000
    70. (0.00667) BD*( 1) C  10 - H  26  
                ( 48.16%)   0.6939* C  10 s( 24.89%)p 3.02( 75.11%)
                                            0.0000 -0.4989  0.3513 -0.4566 -0.6475
                ( 51.84%)  -0.7200* H  26 s(100.00%)
                                           -1.0000
    71. (0.00610) BD*( 1) C  10 - H  27  
                ( 48.19%)   0.6942* C  10 s( 24.73%)p 3.04( 75.27%)
                                            0.0000 -0.4973  0.5235  0.6623  0.2001
                ( 51.81%)  -0.7198* H  27 s(100.00%)
                                           -1.0000
    72. (0.00493) BD*( 1) C  10 - H  28  
[...]
    8      -0.2880       -0.2485      -0.0395        -1.0318       0.7438
    9      -1.1006       -0.6527      -0.4479        -1.9406       0.8400
   10      22.5455        5.2019      17.3436        12.0141      10.5314
   11       1.0067        0.2435       0.7632        -0.2587       1.2654
   17      -0.8001       -1.1405       0.3404        -1.7968       0.9968
   20      -0.1268       -0.6389       0.5121        -1.1029       0.9761
   21      -0.1416       -0.6457       0.5041        -1.0817       0.9401
   22      19.5743        8.1472      11.4271         5.1087      14.4656
   29      -0.3066       -1.0388       0.7322        -1.0470       0.7403
   39     271.1732       -0.0062     271.1794        -0.0030     271.1762
   43      32.5127        0.3154      32.1973        -4.9334      37.4461
   44       2.7221      -35.8496      38.5717       -37.1761      39.8982
 Sum      345.6040      -27.8051     373.4091       -34.4200     380.0240

 Contributions to Isotropic shielding for atom    9 (   211.3512 ppm):
                         Standard Origin              Atomic Origin
 NLMO      Total    Paramagnetic  Diamagnetic   Paramagnetic  Diamagnetic
   14      -0.4837       -0.9940       0.5103        -1.4716       0.9879
   16       5.0654       -9.3404      14.4058        -2.6250       7.6904
   17       0.4136        0.0533       0.3603        -0.6198       1.0334
   23      -0.0866       -6.9080       6.8214        -7.5642       7.4776
   24      -2.3993       -6.0064       3.6071       -10.0236       7.6242
   25       4.3318       -0.8112       5.1430        -6.4832      10.8150
   26       0.8576       -0.3158       1.1734        -0.1761       1.0337
   27       0.5695       -0.4802       1.0496        -0.4402       1.0097
   28       0.5885       -0.1276       0.7161        -0.4416       1.0301
   29       0.9652       -0.4251       1.3903        -0.0866       1.0518
   30       0.6759       -0.5835       1.2594        -0.3669       1.0429
   31       0.6170       -0.3193       0.9363        -0.4108       1.0277
   40     199.9274       -0.0027     199.9300         0.0031     199.9243
 Sum      211.0425      -26.2606     237.3031       -30.7064     241.7489

 Contributions to Isotropic shielding for atom   10 (   224.2266 ppm):
                         Standard Origin              Atomic Origin
 NLMO      Total    Paramagnetic  Diamagnetic   Paramagnetic  Diamagnetic
   23       3.6826       -8.7689      12.4515        -4.3407       8.0233
   24      -0.3284       -0.1007      -0.2277        -1.0174       0.6890
   26       7.1153       -5.6852      12.8006        -4.0203      11.1356
   27       6.6881       -4.3763      11.0644        -4.4072      11.0953
   28       6.0821        3.1937       2.8884        -5.0319      11.1140
   41     200.0740       -0.0019     200.0759         0.0013     200.0727
 Sum      223.3138      -15.7393     239.0530       -18.8163     242.1300

 Contributions to Isotropic shielding for atom   11 (   221.1423 ppm):
                         Standard Origin              Atomic Origin
 NLMO      Total    Paramagnetic  Diamagnetic   Paramagnetic  Diamagnetic
   10       0.0305       -0.1901       0.2206        -1.1020       1.1326
   23      -0.4631       -0.0495      -0.4135        -1.1571       0.6940
   24       4.4225      -10.7222      15.1447        -3.4246       7.8470
   25       0.2555        0.1573       0.0982        -0.7730       1.0285
   28      -0.1043       -0.4567       0.3525        -1.0328       0.9285
   29       6.3295       -5.8306      12.1601        -5.0023      11.3318
   30       5.6174       -3.2172       8.8345        -5.4717      11.0891
   31       4.9001        2.5133       2.3869        -6.1396      11.0397
   42     200.0746       -0.0035     200.0781         0.0021     200.0725
 Sum      221.0628      -17.7992     238.8619       -24.1010     245.1638

 Contributions to Isotropic shielding for atom   12 (    32.4640 ppm):
                         Standard Origin              Atomic Origin
 NLMO      Total    Paramagnetic  Diamagnetic   Paramagnetic  Diamagnetic
    1       1.3284       -0.0234       1.3518         0.3596       0.9688
    2      26.3830        0.1380      26.2450         0.4649      25.9181
    3       1.8988        2.4410      -0.5422         0.0527       1.8461
    4       2.0125        0.8791       1.1333         0.1688       1.8436
    6      -0.1242        0.4499      -0.5742        -1.0193       0.8951
   20      -0.2088       -0.1545      -0.0543        -1.0063       0.7974
 Sum       31.2896        3.7302      27.5594        -0.9795      32.2691

 Contributions to Isotropic shielding for atom   13 (    32.4601 ppm):
                         Standard Origin              Atomic Origin
 NLMO      Total    Paramagnetic  Diamagnetic   Paramagnetic  Diamagnetic
    1       1.3231       -0.0261       1.3492         0.3384       0.9848
    2       1.8373        2.3932      -0.5559         0.0030       1.8343
    3      26.3612        0.1301      26.2310         0.4476      25.9135
    4       2.0328        0.8819       1.1508         0.1980       1.8348
    5      -0.1104        0.4998      -0.6101        -1.0900       0.9796
 Sum       31.4440        3.8789      27.5651        -0.1030      31.5470

 Contributions to Isotropic shielding for atom   14 (    32.5821 ppm):
                         Standard Origin              Atomic Origin
 NLMO      Total    Paramagnetic  Diamagnetic   Paramagnetic  Diamagnetic
    1       1.7084       -1.4237       3.1321         0.8281       0.8803
    2       1.9374        1.2653       0.6722         0.1168       1.8207
    3       1.9596        1.2785       0.6811         0.1391       1.8205
    4      26.3180        0.3925      25.9255         0.3917      25.9263
 Sum       31.9234        1.5126      30.4108         1.4756      30.4478

 Contributions to Isotropic shielding for atom   15 (    32.4417 ppm):
                         Standard Origin              Atomic Origin
 NLMO      Total    Paramagnetic  Diamagnetic   Paramagnetic  Diamagnetic
    1       0.7969        2.4447      -1.6478        -0.2023       0.9992
    5       1.3255        0.9883       0.3372         0.3775       0.9480
    6       1.2684        0.8999       0.3685         0.2708       0.9976
    7      26.5214       -0.2891      26.8106         0.4714      26.0500
   19       0.0280       -0.0389       0.0669        -1.0244       1.0524
   21      -0.1261       -0.0931      -0.0330        -1.2888       1.1627
 Sum       29.8142        3.9118      25.9024        -1.3957      31.2099

 Contributions to Isotropic shielding for atom   16 (    31.6790 ppm):
                         Standard Origin              Atomic Origin
 NLMO      Total    Paramagnetic  Diamagnetic   Paramagnetic  Diamagnetic
    4      -0.1988       -1.0183       0.8194        -0.7676       0.5688
    8       1.1000       -0.1301       1.2301         0.2256       0.8744
   10       1.0400        0.4261       0.6139        -0.9992       2.0392
   11      26.2444        0.4996      25.7448         0.6669      25.5775
   26      -0.3795       -1.2336       0.8541        -0.9050       0.5255
 Sum       27.8061       -1.4562      29.2623        -1.7794      29.5855

 Contributions to Isotropic shielding for atom   17 (    32.5216 ppm):
                         Standard Origin              Atomic Origin
 NLMO      Total    Paramagnetic  Diamagnetic   Paramagnetic  Diamagnetic
   12       1.3813        0.4208       0.9605         0.4965       0.8848
   13       1.0721        1.0340       0.0381         0.0815       0.9907
   14      26.3862        0.0663      26.3199         0.4984      25.8879
   15       2.0470        1.7301       0.3169         0.2738       1.7732
   16      -0.1653       -0.0240      -0.1413        -1.3307       1.1654
 Sum       30.7214        3.2272      27.4941         0.0193      30.7020

 Contributions to Isotropic shielding for atom   18 (    32.4222 ppm):
                         Standard Origin              Atomic Origin
 NLMO      Total    Paramagnetic  Diamagnetic   Paramagnetic  Diamagnetic
   12       1.3650        0.3400       1.0250         0.3363       1.0287
   13       1.0819        1.0016       0.0803         0.0774       1.0045
   14       1.9484        1.6394       0.3090         0.1216       1.8268
   15      26.5007       -0.0180      26.5187         0.4288      26.0719
   17      -0.1563       -0.2888       0.1324        -1.3091       1.1528
 Sum       30.7397        2.6743      28.0654        -0.3450      31.0847

 Contributions to Isotropic shielding for atom   19 (    32.9018 ppm):
                         Standard Origin              Atomic Origin
 NLMO      Total    Paramagnetic  Diamagnetic   Paramagnetic  Diamagnetic
    8       1.3193        0.8560       0.4634         0.3671       0.9523
   10      -0.1504       -0.1242      -0.0262        -1.3928       1.2424
   12       1.0882        1.0501       0.0381        -0.0158       1.1039
   15      -0.1036       -0.7471       0.6435        -1.2783       1.1747
   16       1.0649        1.4581      -0.3932        -0.1480       1.2129
   17      26.6533       -0.0870      26.7403         0.4527      26.2006
   22      -0.0328       -1.0812       1.0485        -0.7838       0.7510
   30      -0.1357       -1.3836       1.2479        -1.0118       0.8761
 Sum       29.7032       -0.0589      29.7622        -3.8108      33.5140

 Contributions to Isotropic shielding for atom   20 (    32.9863 ppm):
                         Standard Origin              Atomic Origin
 NLMO      Total    Paramagnetic  Diamagnetic   Paramagnetic  Diamagnetic
    1      -0.0940       -0.6428       0.5488        -1.1701       1.0761
    4      -0.0373       -1.0540       1.0167        -0.9825       0.9452
    5       1.3487        0.4480       0.9008         0.5432       0.8055
   13       1.3772       -0.1602       1.5375         0.4606       0.9166
   18      26.3890        0.2496      26.1394         0.4073      25.9817
   19       1.9708        1.6841       0.2867         0.1848       1.7859
   27      -0.3081       -1.0453       0.7372        -0.8541       0.5460
 Sum       30.6463       -0.5207      31.1670        -1.4107      32.0570

 Contributions to Isotropic shielding for atom   21 (    32.4399 ppm):
                         Standard Origin              Atomic Origin
 NLMO      Total    Paramagnetic  Diamagnetic   Paramagnetic  Diamagnetic
    3      -0.0750       -1.0661       0.9910        -0.9284       0.8533
    5       0.9772        1.4334      -0.4562         0.0155       0.9617
    7       0.0678       -0.2351       0.3030        -0.9617       1.0296
   13       1.1238        1.0168       0.1070         0.1501       0.9737
   18       2.1037        1.2361       0.8676         0.3387       1.7650
   19      26.4295       -0.0687      26.4982         0.4662      25.9632
 Sum       30.6269        2.3163      28.3106        -0.9196      31.5465

 Contributions to Isotropic shielding for atom   22 (    32.1960 ppm):
                         Standard Origin              Atomic Origin
 NLMO      Total    Paramagnetic  Diamagnetic   Paramagnetic  Diamagnetic
    1      -0.1633       -0.3761       0.2128        -1.2875       1.1242
    2      -0.0517       -1.3073       1.2557        -0.9881       0.9365
    6       1.0220        1.1384      -0.1164         0.1581       0.8639
    9       1.2620        0.3993       0.8626         0.3656       0.8963
   10      -0.1125        0.1579      -0.2704        -1.4901       1.3777
   20      26.1986        0.0554      26.1432         0.4916      25.7070
   21       2.0005        1.6579       0.3426         0.1888       1.8117
 Sum       30.1556        1.7255      28.4301        -2.5616      32.7172

 Contributions to Isotropic shielding for atom   23 (    32.8236 ppm):
                         Standard Origin              Atomic Origin
 NLMO      Total    Paramagnetic  Diamagnetic   Paramagnetic  Diamagnetic
    6       1.0944        0.7817       0.3126         0.0955       0.9988
    7      -0.0432       -0.7061       0.6629        -1.1652       1.1220
    9       1.4080        0.2106       1.1974         0.5483       0.8597
   10      -0.1719        0.2238      -0.3957        -1.2332       1.0613
   20       1.9570        1.6896       0.2673         0.0592       1.8978
   21      26.5763        0.0503      26.5260         0.4037      26.1727
 Sum       30.8205        2.2500      28.5705        -1.2918      32.1123

 Contributions to Isotropic shielding for atom   24 (    35.4561 ppm):
                         Standard Origin              Atomic Origin
 NLMO      Total    Paramagnetic  Diamagnetic   Paramagnetic  Diamagnetic
    9      -0.1662        0.3619      -0.5281        -1.0930       0.9268
   10       1.8362        1.5894       0.2469         1.2313       0.6049
   22      23.0571       -0.3435      23.4006        -0.1141      23.1712
   43       3.9771        1.3949       2.5822         2.0283       1.9487
   44       5.5421        2.4424       3.0997         2.4004       3.1417
 Sum       34.2464        5.4452      28.8013         4.4530      29.7934

 Contributions to Isotropic shielding for atom   25 (    32.4711 ppm):
                         Standard Origin              Atomic Origin
 NLMO      Total    Paramagnetic  Diamagnetic   Paramagnetic  Diamagnetic
   12      -0.0938        0.2877      -0.3815        -1.0503       0.9564
   16       1.5719        0.3015       1.2704         0.5443       1.0276
   23       0.9822        1.5543      -0.5721        -0.0497       1.0319
   24       0.7966        2.1159      -1.3193        -0.2476       1.0442
   25      26.6088       -0.1745      26.7833         0.4754      26.1335
   31       0.2050       -0.5590       0.7640        -0.8064       1.0114
 Sum       30.0708        3.5260      26.5447        -1.1343      31.2051

 Contributions to Isotropic shielding for atom   26 (    32.6616 ppm):
                         Standard Origin              Atomic Origin
 NLMO      Total    Paramagnetic  Diamagnetic   Paramagnetic  Diamagnetic
   23       1.4924       -0.6117       2.1041         0.5510       0.9414
   26      26.3002        0.3097      25.9905         0.3673      25.9328
   27       2.1301        0.3409       1.7893         0.3196       1.8105
   28       1.9853        1.7502       0.2351         0.1383       1.8470
 Sum       31.9080        1.7890      30.1190         1.3763      30.5317

 Contributions to Isotropic shielding for atom   27 (    32.6209 ppm):
                         Standard Origin              Atomic Origin
 NLMO      Total    Paramagnetic  Diamagnetic   Paramagnetic  Diamagnetic
   12      -0.0878       -0.0468      -0.0410        -1.0243       0.9365
   23       1.4285       -0.3741       1.8026         0.4027       1.0259
   26       2.1298        0.2337       1.8961         0.2956       1.8343
   27      26.3450        0.2476      26.0974         0.3777      25.9673
   28       1.9709        1.9526       0.0183         0.0923       1.8786
 Sum       31.7864        2.0131      29.7734         0.1440      31.6425

 Contributions to Isotropic shielding for atom   28 (    32.5203 ppm):
                         Standard Origin              Atomic Origin
 NLMO      Total    Paramagnetic  Diamagnetic   Paramagnetic  Diamagnetic
   23       1.1481        1.0122       0.1359         0.1154       1.0327
   24      -0.1415        0.3974      -0.5389        -1.1409       0.9993
   26       2.0437        1.3306       0.7131         0.1767       1.8669
   27       2.0296        1.6428       0.3868         0.1626       1.8670
   28      26.2847       -0.0312      26.3160         0.3978      25.8870
 Sum       31.3645        4.3517      27.0128        -0.2884      31.6530

 Contributions to Isotropic shielding for atom   29 (    32.0701 ppm):
                         Standard Origin              Atomic Origin
 NLMO      Total    Paramagnetic  Diamagnetic   Paramagnetic  Diamagnetic
    8      -0.0923        0.0690      -0.1613        -1.0470       0.9547
   10       0.0804       -0.2356       0.3160        -1.1376       1.2180
   23      -0.1347        0.1525      -0.2871        -1.0627       0.9280
   24       1.5657       -1.0838       2.6495         0.6577       0.9080
   29      26.0604        0.3399      25.7205         0.4159      25.6445
   30       2.0159        0.7618       1.2541         0.2124       1.8036
   31       1.8876        1.8513       0.0363         0.0392       1.8484
   43      -0.3612        0.0830      -0.4442         0.6919      -1.0532
 Sum       31.0218        1.9380      29.0838        -1.2301      32.2519

 Contributions to Isotropic shielding for atom   30 (    32.4736 ppm):
                         Standard Origin              Atomic Origin
 NLMO      Total    Paramagnetic  Diamagnetic   Paramagnetic  Diamagnetic
   16      -0.0517        0.1136      -0.1653        -1.0016       0.9499
   24       1.4916       -0.5328       2.0244         0.5033       0.9882
   29       2.0831        0.6345       1.4486         0.2347       1.8485
   30      26.3829        0.2461      26.1368         0.4194      25.9635
   31       1.8958        2.2978      -0.4021         0.0621       1.8337
 Sum       31.8017        2.7593      29.0424         0.2179      31.5838

 Contributions to Isotropic shielding for atom   31 (    32.4633 ppm):
                         Standard Origin              Atomic Origin
 NLMO      Total    Paramagnetic  Diamagnetic   Paramagnetic  Diamagnetic
   23      -0.1493        0.6239      -0.7732        -1.0739       0.9246
   24       1.2398        0.4642       0.7756         0.2429       0.9970
   29       2.0004        1.4860       0.5144         0.1148       1.8856
   30       1.9367        2.0145      -0.0778         0.0850       1.8517
   31      26.4419        0.0105      26.4314         0.4441      25.9978
 Sum       31.4695        4.5991      26.8704        -0.1871      31.6566
 
 1\1\GINC-COMPUTE-9-5\SP\RHF\STO-3G\C10H20O1\YTSAI.IQUIR\03-Aug-2021\0\
 \# rhf/STO-3G nmr pop=nbo\\comment\\0,1\C,0,0.318308905,0.387228673,-3
 .246704651\C,0,-0.737610846,0.33110378,-2.141586054\C,0,-0.012736515,-
 1.114369976,-0.170087808\C,0,-1.146903746,1.149474657,0.224467597\C,0,
 -0.60610333,-0.14372442,0.879738205\C,0,-0.494066864,1.453209044,-1.12
 0565176\C,0,-0.788115958,-1.057529595,-1.487308587\O,0,-0.052646703,-2
 .455181452,0.314950892\C,0,0.339793889,0.16701874,2.082012554\C,0,1.60
 3286831,0.946497055,1.705734191\C,0,0.73051977,-1.089358423,2.86620054
 5\H,0,0.104999098,-0.352446844,-4.025646653\H,0,0.333206113,1.37489210
 4,-3.71966032\H,0,1.319416213,0.18340714,-2.851891117\H,0,-1.712005078
 ,0.504082342,-2.617812236\H,0,1.037810674,-0.882447516,-0.370017913\H,
 0,-1.040961068,2.00911326,0.895940348\H,0,-2.226864151,1.031861201,0.0
 61816101\H,0,-1.478561233,-0.640436235,1.33090813\H,0,0.581344252,1.61
 0601921,-0.975767599\H,0,-0.890403092,2.395527702,-1.517963502\H,0,-0.
 431158873,-1.836058602,-2.173185764\H,0,-1.836298242,-1.32074666,-1.28
 7136463\H,0,-0.982896159,-2.689166975,0.474246951\H,0,-0.229524097,0.7
 99929409,2.777294123\H,0,2.241159132,0.385603352,1.016570841\H,0,1.359
 606445,1.907832727,1.245031387\H,0,2.198298397,1.163255528,2.600163309
 \H,0,1.42425989,-1.72138071,2.303164347\H,0,-0.152708421,-1.682837636,
 3.123703253\H,0,1.227554768,-0.814953591,3.803391068\\Version=EM64L-G0
 9RevC.01\State=1-A\HF=-459.6113063\RMSD=8.126e-09\Dipole=-0.4673839,0.
 3701763,-0.091115\Quadrupole=1.6012239,-1.8708057,0.2695817,2.2426962,
 -0.3392074,0.4968395\PG=C01 [X(C10H20O1)]\\@


 IMAGINATION WILL OFTEN CARRY US TO WORLDS THAT NEVER WERE.
 BUT WITHOUT IT, WE GO NOWHERE. -- CARL SAGAN (COSMOS)
 Job cpu time:  0 days  0 hours  0 minutes 24.6 seconds.
 File lengths (MBytes):  RWF=      5 Int=      0 D2E=      0 Chk=      1 Scr=      1
 Normal termination of Gaussian 09 at Tue Aug  3 16:36:36 2021.
