 Entering Gaussian System, Link 0=g09
 Input=/home/ytsai.iquir/menthol/03_menthol_M0019_MMFF_NMR_rhf_STO-3G_nbo.gjc
 Output=/home/ytsai.iquir/menthol/03_menthol_M0019_MMFF_NMR_rhf_STO-3G_nbo.log
 Initial command:
 /share/apps/Gaussian09/EM64T.SSE4.2-enabled/g09/l1.exe /tmp/Gau-13918.inp -scrdir=/tmp/
 Entering Link 1 = /share/apps/Gaussian09/EM64T.SSE4.2-enabled/g09/l1.exe PID=     13919.
  
 Copyright (c) 1988,1990,1992,1993,1995,1998,2003,2009,2011,
            Gaussian, Inc.  All Rights Reserved.
  
 This is part of the Gaussian(R) 09 program.  It is based on
 the Gaussian(R) 03 system (copyright 2003, Gaussian, Inc.),
 the Gaussian(R) 98 system (copyright 1998, Gaussian, Inc.),
 the Gaussian(R) 94 system (copyright 1995, Gaussian, Inc.),
 the Gaussian 92(TM) system (copyright 1992, Gaussian, Inc.),
 the Gaussian 90(TM) system (copyright 1990, Gaussian, Inc.),
 the Gaussian 88(TM) system (copyright 1988, Gaussian, Inc.),
 the Gaussian 86(TM) system (copyright 1986, Carnegie Mellon
 University), and the Gaussian 82(TM) system (copyright 1983,
 Carnegie Mellon University). Gaussian is a federally registered
 trademark of Gaussian, Inc.
  
 This software contains proprietary and confidential information,
 including trade secrets, belonging to Gaussian, Inc.
  
 This software is provided under written license and may be
 used, copied, transmitted, or stored only in accord with that
 written license.
  
 The following legend is applicable only to US Government
 contracts under FAR:
  
                    RESTRICTED RIGHTS LEGEND
  
 Use, reproduction and disclosure by the US Government is
 subject to restrictions as set forth in subparagraphs (a)
 and (c) of the Commercial Computer Software - Restricted
 Rights clause in FAR 52.227-19.
  
 Gaussian, Inc.
 340 Quinnipiac St., Bldg. 40, Wallingford CT 06492
  
  
 ---------------------------------------------------------------
 Warning -- This program may not be used in any manner that
 competes with the business of Gaussian, Inc. or will provide
 assistance to any competitor of Gaussian, Inc.  The licensee
 of this program is prohibited from giving any competitor of
 Gaussian, Inc. access to this program.  By using this program,
 the user acknowledges that Gaussian, Inc. is engaged in the
 business of creating and licensing software in the field of
 computational chemistry and represents and warrants to the
 licensee that it is not a competitor of Gaussian, Inc. and that
 it will not use this program in any manner prohibited above.
 ---------------------------------------------------------------
  

 Cite this work as:
 Gaussian 09, Revision C.01,
 M. J. Frisch, G. W. Trucks, H. B. Schlegel, G. E. Scuseria, 
 M. A. Robb, J. R. Cheeseman, G. Scalmani, V. Barone, B. Mennucci, 
 G. A. Petersson, H. Nakatsuji, M. Caricato, X. Li, H. P. Hratchian, 
 A. F. Izmaylov, J. Bloino, G. Zheng, J. L. Sonnenberg, M. Hada, 
 M. Ehara, K. Toyota, R. Fukuda, J. Hasegawa, M. Ishida, T. Nakajima, 
 Y. Honda, O. Kitao, H. Nakai, T. Vreven, J. A. Montgomery, Jr., 
 J. E. Peralta, F. Ogliaro, M. Bearpark, J. J. Heyd, E. Brothers, 
 K. N. Kudin, V. N. Staroverov, T. Keith, R. Kobayashi, J. Normand, 
 K. Raghavachari, A. Rendell, J. C. Burant, S. S. Iyengar, J. Tomasi, 
 M. Cossi, N. Rega, J. M. Millam, M. Klene, J. E. Knox, J. B. Cross, 
 V. Bakken, C. Adamo, J. Jaramillo, R. Gomperts, R. E. Stratmann, 
 O. Yazyev, A. J. Austin, R. Cammi, C. Pomelli, J. W. Ochterski, 
 R. L. Martin, K. Morokuma, V. G. Zakrzewski, G. A. Voth, 
 P. Salvador, J. J. Dannenberg, S. Dapprich, A. D. Daniels, 
 O. Farkas, J. B. Foresman, J. V. Ortiz, J. Cioslowski, 
 and D. J. Fox, Gaussian, Inc., Wallingford CT, 2010.
 
 ******************************************
 Gaussian 09:  EM64L-G09RevC.01 23-Sep-2011
                24-May-2020 
 ******************************************
 %nprocshared=4
 Will use up to    4 processors via shared memory.
 ------------------------
 # rhf/STO-3G nmr pop=nbo
 ------------------------
 1/38=1/1;
 2/12=2,17=6,18=5,40=1/2;
 3/6=3,11=1,16=1,25=1,30=1,116=1/1,2,8,3;
 4//1;
 5/5=2,38=5/2;
 8/6=1,10=90,11=11/1;
 10/13=100,45=16/2;
 6/7=2,8=2,9=2,10=2,28=1,64=1/1,7;
 99/9=1/99;
 -------
 comment
 -------
 Charge =  0 Multiplicity = 1
 Symbolic Z-Matrix:
 6                     0.12564   0.93474  -2.90496 
 6                    -0.9886    0.14341  -2.21539 
 6                     0.38465  -0.95252  -0.34923 
 6                    -0.85973   1.20413   0.10317 
 6                    -0.36126  -0.12065   0.71791 
 6                    -1.70624   0.97829  -1.14904 
 6                    -0.46621  -1.16159  -1.60774 
 8                     0.73622  -2.2374    0.15467 
 6                     0.43678   0.15672   2.02929 
 6                     1.83042   0.74808   1.80045 
 6                     0.54588  -1.07811   2.93043 
 1                     0.59      0.3347   -3.69488 
 1                    -0.2781    1.84008  -3.37074 
 1                     0.91417   1.23969  -2.21102 
 1                    -1.72168  -0.11487  -2.99076 
 1                     1.31838  -0.45617  -0.63189 
 1                    -0.01461   1.8551   -0.14512 
 1                    -1.46474   1.74726   0.83954 
 1                    -1.25413  -0.69023   1.01559 
 1                    -2.00912   1.94604  -1.56626 
 1                    -2.63101   0.46276  -0.85894 
 1                     0.10935  -1.72827  -2.35085 
 1                    -1.3206   -1.80552  -1.35712 
 1                    -0.08215  -2.68492   0.42968 
 1                    -0.13728   0.89737   2.60338 
 1                     2.49842   0.03363   1.30904 
 1                     1.78952   1.65519   1.19122 
 1                     2.29025   1.01963   2.75734 
 1                     1.24322  -1.82077   2.53334 
 1                    -0.43014  -1.55488   3.06649 
 1                     0.9127   -0.79092   3.92241 
 
                          Input orientation:                          
 ---------------------------------------------------------------------
 Center     Atomic      Atomic             Coordinates (Angstroms)
 Number     Number       Type             X           Y           Z
 ---------------------------------------------------------------------
      1          6           0        0.125637    0.934736   -2.904964
      2          6           0       -0.988599    0.143408   -2.215393
      3          6           0        0.384648   -0.952524   -0.349227
      4          6           0       -0.859728    1.204126    0.103166
      5          6           0       -0.361261   -0.120653    0.717915
      6          6           0       -1.706237    0.978293   -1.149036
      7          6           0       -0.466208   -1.161589   -1.607743
      8          8           0        0.736223   -2.237399    0.154667
      9          6           0        0.436782    0.156721    2.029289
     10          6           0        1.830425    0.748078    1.800452
     11          6           0        0.545880   -1.078112    2.930429
     12          1           0        0.590004    0.334695   -3.694882
     13          1           0       -0.278101    1.840083   -3.370737
     14          1           0        0.914167    1.239694   -2.211025
     15          1           0       -1.721676   -0.114869   -2.990760
     16          1           0        1.318380   -0.456167   -0.631887
     17          1           0       -0.014611    1.855100   -0.145117
     18          1           0       -1.464741    1.747259    0.839542
     19          1           0       -1.254127   -0.690231    1.015589
     20          1           0       -2.009118    1.946035   -1.566257
     21          1           0       -2.631006    0.462762   -0.858939
     22          1           0        0.109349   -1.728271   -2.350853
     23          1           0       -1.320605   -1.805520   -1.357124
     24          1           0       -0.082154   -2.684918    0.429677
     25          1           0       -0.137282    0.897371    2.603375
     26          1           0        2.498417    0.033633    1.309044
     27          1           0        1.789519    1.655195    1.191216
     28          1           0        2.290252    1.019628    2.757338
     29          1           0        1.243221   -1.820769    2.533339
     30          1           0       -0.430144   -1.554877    3.066491
     31          1           0        0.912696   -0.790918    3.922412
 ---------------------------------------------------------------------
                    Distance matrix (angstroms):
                    1          2          3          4          5
     1  C    0.000000
     2  C    1.530762   0.000000
     3  C    3.187574   2.563093   0.000000
     4  C    3.176848   2.552928   2.530665   0.000000
     5  C    3.804756   3.011241   1.545050   1.543186   0.000000
     6  C    2.537902   1.532695   2.956272   1.528263   2.549931
     7  C    2.535280   1.531388   1.533468   2.945958   2.550146
     8  O    4.449337   3.776299   1.424226   3.793916   2.449966
     9  C    5.004894   4.477634   2.624972   2.547144   1.559971
    10  C    5.008201   4.943635   3.098942   3.213360   2.594237
    11  C    6.187081   5.506924   3.286018   3.895864   2.575821
    12  H    1.095288   2.171973   3.590614   4.157258   4.537072
    13  H    1.095264   2.172173   4.167423   3.579209   4.535248
    14  H    1.093769   2.195992   2.924466   2.916067   3.472167
    15  H    2.126405   1.097863   3.480799   3.472043   3.950321
    16  H    2.919611   2.861666   1.094588   2.835671   2.180763
    17  H    2.912644   2.857374   2.843206   1.095278   2.183710
    18  H    4.148593   3.483055   3.481701   1.096943   2.172914
    19  H    4.462623   3.347342   2.148744   2.139311   1.100109
    20  H    2.715150   2.170784   3.951319   2.158356   3.493433
    21  H    3.465265   2.153939   3.370016   2.147718   2.824639
    22  H    2.720094   2.174171   2.164273   3.944650   3.496175
    23  H    3.463586   2.155266   2.156697   3.376806   2.839877
    24  H    4.925942   3.977118   1.955961   3.979433   2.595465
    25  H    5.514737   4.951134   3.523121   2.620510   2.154414
    26  H    4.919343   4.959131   2.861885   3.755174   2.924208
    27  H    4.479537   4.648486   3.338686   2.899280   2.829047
    28  H    6.062543   6.020521   4.143846   4.123232   3.534120
    29  H    6.198141   5.602631   3.130525   4.413403   2.959818
    30  H    6.493484   5.576230   3.562842   4.071601   2.752736
    31  H    7.085931   6.493115   4.307186   4.659220   3.512980
                    6          7          8          9         10
     6  C    0.000000
     7  C    2.515388   0.000000
     8  O    4.243339   2.389413   0.000000
     9  C    3.920365   3.972572   3.055435   0.000000
    10  C    4.610906   4.531792   3.580358   1.531114   0.000000
    11  C    5.093414   4.650408   3.014138   1.532570   2.502374
    12  H    3.488305   2.776797   4.632070   5.728986   5.648737
    13  H    2.778167   3.486197   5.484815   5.701320   5.690303
    14  H    2.839484   2.834703   4.209315   4.402384   4.144051
    15  H    2.141772   2.141159   4.521074   5.471160   6.026426
    16  H    3.387245   2.152828   2.032329   2.869617   2.762005
    17  H    2.153658   3.382843   4.171591   2.795762   2.900843
    18  H    2.145710   3.930352   4.603346   2.749745   3.574889
    19  H    2.770194   2.779364   2.663908   2.145714   3.492736
    20  H    1.096511   3.469816   5.291465   4.702342   5.245181
    21  H    1.097783   2.808126   4.433565   4.224552   5.201743
    22  H    3.473644   1.097546   2.632454   4.779754   5.131056
    23  H    2.818089   1.098840   2.588932   4.290290   5.140052
    24  H    4.306866   2.572763   0.972443   3.301964   4.162024
    25  H    4.068017   4.699045   4.072587   1.098948   2.130457
    26  H    4.961215   4.327262   3.097660   2.187291   1.094590
    27  H    4.260903   4.566918   4.163671   2.185792   1.093482
    28  H    5.588685   5.604436   4.449396   2.170257   1.095815
    29  H    5.485794   4.528270   2.467531   2.194284   2.735126
    30  H    5.080948   4.690888   3.210135   2.181036   3.466501
    31  H    5.975660   5.711514   4.039722   2.169892   2.777310
                   11         12         13         14         15
    11  C    0.000000
    12  H    6.774416   0.000000
    13  H    6.992818   1.767730   0.000000
    14  H    5.651761   1.768032   1.768305   0.000000
    15  H    6.413278   2.457999   2.459701   3.064392   0.000000
    16  H    3.697792   3.246218   3.914437   2.352235   3.862992
    17  H    4.286824   3.908711   3.236399   2.347196   3.859085
    18  H    4.049337   5.174776   4.375292   3.901638   4.266703
    19  H    2.656518   5.161378   5.157032   4.340178   4.074369
    20  H    5.991133   3.725975   2.502757   3.075750   2.521737
    21  H    5.179402   4.293469   3.707062   3.872985   2.388556
    22  H    5.339026   2.508639   3.731411   3.078327   2.522935
    23  H    4.732441   3.700818   4.293236   3.872554   2.384937
    24  H    3.038094   5.155759   5.912460   4.834102   4.581766
    25  H    2.115705   6.365029   6.049674   4.939755   5.901634
    26  H    2.770788   5.363950   5.733469   4.044170   6.026571
    27  H    3.470226   5.201587   5.012051   3.537530   5.740256
    28  H    2.733735   6.707542   6.694990   5.160103   7.100935
    29  H    1.093391   6.622950   7.111567   5.655413   6.497414
    30  H    1.094733   7.094177   7.279202   6.121190   6.358614
    31  H    1.095931   7.706770   7.844118   6.460838   7.428924
                   16         17         18         19         20
    16  H    0.000000
    17  H    2.712152   0.000000
    18  H    3.842649   1.756148   0.000000
    19  H    3.063781   3.059795   2.452898   0.000000
    20  H    4.209022   2.450707   2.474616   3.766410   0.000000
    21  H    4.061236   3.048552   2.427951   2.595967   1.757028
    22  H    2.456592   4.209653   4.973498   3.777502   4.313238
    23  H    3.051387   4.071206   4.179516   2.622605   3.819942
    24  H    2.838265   4.576758   4.660872   2.386543   5.398395
    25  H    3.797096   2.913160   2.365495   2.507765   4.689275
    26  H    2.323705   3.427483   4.343221   3.832972   5.678249
    27  H    2.829050   2.254026   3.274502   3.846511   4.702966
    28  H    3.822218   3.799296   4.278711   4.303478   6.167357
    29  H    3.447673   4.718928   4.788824   3.133437   6.447730
    30  H    4.235859   4.702662   4.115070   2.373343   6.017633
    31  H    4.584570   4.940253   4.647434   3.626966   6.793630
                   21         22         23         24         25
    21  H    0.000000
    22  H    3.812608   0.000000
    23  H    2.666541   1.743053   0.000000
    24  H    4.250302   2.946726   2.345157   0.000000
    25  H    4.288958   5.612414   4.938767   4.190560   0.000000
    26  H    5.585274   4.712408   5.007580   3.850084   3.060759
    27  H    5.016580   5.178519   5.305040   4.787451   2.506204
    28  H    6.132401   6.196845   6.160239   4.976944   2.435482
    29  H    5.633090   5.014933   4.659307   2.632255   3.049423
    30  H    4.931902   5.446901   4.519304   2.889788   2.512720
    31  H    6.082011   6.393579   5.821559   4.095871   2.385924
                   26         27         28         29         30
    26  H    0.000000
    27  H    1.773664   0.000000
    28  H    1.764391   1.762787   0.000000
    29  H    2.552102   3.765908   3.035507   0.000000
    30  H    3.766756   4.329911   3.758218   1.776260   0.000000
    31  H    3.166084   3.769844   2.555999   1.760501   1.766198
                   31
    31  H    0.000000
 Stoichiometry    C10H20O
 Framework group  C1[X(C10H20O)]
 Deg. of freedom    87
 Full point group                 C1      NOp   1
 Largest Abelian subgroup         C1      NOp   1
 Largest concise Abelian subgroup C1      NOp   1
                         Standard orientation:                         
 ---------------------------------------------------------------------
 Center     Atomic      Atomic             Coordinates (Angstroms)
 Number     Number       Type             X           Y           Z
 ---------------------------------------------------------------------
      1          6           0       -2.821766   -0.285512    1.184448
      2          6           0       -2.403917    0.141022   -0.225057
      3          6           0       -0.015805    0.924590    0.277329
      4          6           0       -0.420084   -1.432580   -0.550061
      5          6           0        0.564901   -0.244630   -0.549040
      6          6           0       -1.815130   -1.026825   -1.024191
      7          6           0       -1.421311    1.315226   -0.195409
      8          8           0        0.810438    2.080742    0.182184
      9          6           0        1.988761   -0.721425   -0.126192
     10          6           0        2.127321   -1.030709    1.366944
     11          6           0        3.092147    0.253240   -0.552031
     12          1           0       -3.283717    0.552285    1.717694
     13          1           0       -3.558019   -1.095077    1.138191
     14          1           0       -1.976850   -0.636696    1.783712
     15          1           0       -3.314547    0.475692   -0.738918
     16          1           0       -0.061508    0.653570    1.336849
     17          1           0       -0.492777   -1.872991    0.450133
     18          1           0       -0.043460   -2.222781   -1.211138
     19          1           0        0.651939    0.098675   -1.590580
     20          1           0       -2.484908   -1.893725   -0.977085
     21          1           0       -1.755940   -0.737997   -2.081641
     22          1           0       -1.809458    2.125422    0.435091
     23          1           0       -1.350876    1.746975   -1.203418
     24          1           0        0.878065    2.323463   -0.757048
     25          1           0        2.188180   -1.656060   -0.668757
     26          1           0        2.030485   -0.128214    1.978707
     27          1           0        1.378525   -1.754168    1.701030
     28          1           0        3.112520   -1.462469    1.576169
     29          1           0        3.097560    1.163544    0.053627
     30          1           0        2.984633    0.535836   -1.604181
     31          1           0        4.075953   -0.215598   -0.436352
 ---------------------------------------------------------------------
 Rotational constants (GHZ):      1.7022545      0.7522916      0.6566496
 Standard basis: STO-3G (5D, 7F)
 There are    75 symmetry adapted basis functions of A   symmetry.
 Integral buffers will be    131072 words long.
 Raffenetti 1 integral format.
 Two-electron integral symmetry is turned on.
    75 basis functions,   225 primitive gaussians,    75 cartesian basis functions
    44 alpha electrons       44 beta electrons
       nuclear repulsion energy       699.1191897798 Hartrees.
 NAtoms=   31 NActive=   31 NUniq=   31 SFac= 1.00D+00 NAtFMM=   60 NAOKFM=F Big=F
 One-electron integrals computed using PRISM.
 NBasis=    75 RedAO= T  NBF=    75
 NBsUse=    75 1.00D-06 NBFU=    75
 Harris functional with IExCor=  205 diagonalized for initial guess.
 ExpMin= 1.69D-01 ExpMax= 1.31D+02 ExpMxC= 1.31D+02 IAcc=1 IRadAn=         1 AccDes= 0.00D+00
 HarFok:  IExCor=  205 AccDes= 0.00D+00 IRadAn=         1 IDoV= 1
 ScaDFX=  1.000000  1.000000  1.000000  1.000000
 FoFCou: FMM=F IPFlag=           0 FMFlag=      100000 FMFlg1=           0
         NFxFlg=           0 DoJE=T BraDBF=F KetDBF=T FulRan=T
         Omega=  0.000000  0.000000  1.000000  0.000000  0.000000 ICntrl=     500 IOpCl=  0
         NMat0=    1 NMatS0=    1 NMatT0=    0 NMatD0=    1 NMtDS0=    0 NMtDT0=    0
         I1Cent=           4 NGrid=           0.
 Petite list used in FoFCou.
 Initial guess orbital symmetries:
       Occupied  (A) (A) (A) (A) (A) (A) (A) (A) (A) (A) (A) (A)
                 (A) (A) (A) (A) (A) (A) (A) (A) (A) (A) (A) (A)
                 (A) (A) (A) (A) (A) (A) (A) (A) (A) (A) (A) (A)
                 (A) (A) (A) (A) (A) (A) (A) (A)
       Virtual   (A) (A) (A) (A) (A) (A) (A) (A) (A) (A) (A) (A)
                 (A) (A) (A) (A) (A) (A) (A) (A) (A) (A) (A) (A)
                 (A) (A) (A) (A) (A) (A) (A)
 The electronic state of the initial guess is 1-A.
 Requested convergence on RMS density matrix=1.00D-08 within 128 cycles.
 Requested convergence on MAX density matrix=1.00D-06.
 Requested convergence on             energy=1.00D-06.
 No special actions if energy rises.
 Keep R1 ints in memory in canonical form, NReq=4898789.
 SCF Done:  E(RHF) =  -459.619798341     A.U. after   10 cycles
             Convg  =    0.8526D-08             -V/T =  2.0090
 Range of M.O.s used for correlation:     1    75
 NBasis=    75 NAE=    44 NBE=    44 NFC=     0 NFV=     0
 NROrb=     75 NOA=    44 NOB=    44 NVA=    31 NVB=    31
          Differentiating once with respect to magnetic field using GIAOs.
          Electric field/nuclear overlap derivatives assumed to be zero.
          Keep R3 ints in memory in canonical form, NReq=4863575.
 FoFCou: FMM=F IPFlag=           0 FMFlag=           0 FMFlg1=           0
         NFxFlg=           0 DoJE=F BraDBF=F KetDBF=T FulRan=T
         Omega=  0.000000  0.000000  1.000000  0.000000  0.000000 ICntrl=    6100 IOpCl=  0
         NMat0=    1 NMatS0=    1 NMatT0=    0 NMatD0=    1 NMtDS0=    0 NMtDT0=    0
         I1Cent=           7 NGrid=          31.
 Symmetry not used in FoFCou.
          There are     3 degrees of freedom in the 1st order CPHF.  IDoFFX=0.
      3 vectors produced by pass  0 Test12= 4.55D-14 3.33D-08 XBig12= 6.70D+00 3.67D-01.
 AX will form     3 AO Fock derivatives at one time.
      3 vectors produced by pass  1 Test12= 4.55D-14 3.33D-08 XBig12= 1.10D-02 1.66D-02.
      3 vectors produced by pass  2 Test12= 4.55D-14 3.33D-08 XBig12= 6.89D-05 2.47D-03.
      3 vectors produced by pass  3 Test12= 4.55D-14 3.33D-08 XBig12= 1.71D-06 3.12D-04.
      3 vectors produced by pass  4 Test12= 4.55D-14 3.33D-08 XBig12= 1.83D-08 3.77D-05.
      3 vectors produced by pass  5 Test12= 4.55D-14 3.33D-08 XBig12= 3.09D-10 2.98D-06.
      3 vectors produced by pass  6 Test12= 4.55D-14 3.33D-08 XBig12= 3.45D-12 3.32D-07.
 Inverted reduced A of dimension    21 with in-core refinement.
 Calculating GIAO nuclear magnetic shielding tensors.
 SCF GIAO Magnetic shielding tensor (ppm):
      1  C    Isotropic =   222.8988   Anisotropy =    24.5225
   XX=   216.7491   YX=     4.0701   ZX=    -9.0271
   XY=     5.3379   YY=   219.5784   ZY=    -3.3761
   XZ=   -12.8408   YZ=    -2.8648   ZZ=   232.3689
   Eigenvalues:   210.2271   219.2222   239.2472
      2  C    Isotropic =   216.4070   Anisotropy =     4.3151
   XX=   216.2935   YX=     1.7280   ZX=    -3.7606
   XY=     1.0849   YY=   217.5706   ZY=     1.1037
   XZ=    -2.9992   YZ=     1.4069   ZZ=   215.3570
   Eigenvalues:   211.8055   218.1319   219.2837
      3  C    Isotropic =   190.7750   Anisotropy =    42.5600
   XX=   195.2217   YX=    15.8290   ZX=    -4.0134
   XY=    16.7925   YY=   207.7498   ZY=    -0.6080
   XZ=    -4.9157   YZ=    -0.7035   ZZ=   169.3535
   Eigenvalues:   168.4632   184.7135   219.1483
      4  C    Isotropic =   217.8878   Anisotropy =    19.8809
   XX=   228.1268   YX=     3.9697   ZX=     4.5822
   XY=     5.3371   YY=   221.5317   ZY=     3.3871
   XZ=     0.7974   YZ=     3.8090   ZZ=   204.0050
   Eigenvalues:   203.1671   219.3546   231.1417
      5  C    Isotropic =   207.5003   Anisotropy =    11.0312
   XX=   212.1969   YX=    -3.7420   ZX=     3.0242
   XY=    -2.8044   YY=   205.4313   ZY=    -0.7869
   XZ=     3.5388   YZ=    -2.4384   ZZ=   204.8726
   Eigenvalues:   203.4468   204.1996   214.8544
      6  C    Isotropic =   216.7788   Anisotropy =    11.0910
   XX=   219.7647   YX=    -3.2058   ZX=    -1.9469
   XY=    -3.5067   YY=   216.4914   ZY=     7.7883
   XZ=    -1.2080   YZ=     3.7868   ZZ=   214.0802
   Eigenvalues:   209.2890   216.8746   224.1728
      7  C    Isotropic =   214.4193   Anisotropy =    18.1059
   XX=   225.2130   YX=     6.9376   ZX=    -0.7088
   XY=     1.5764   YY=   212.2843   ZY=    -4.3405
   XZ=     1.6889   YZ=    -0.0069   ZZ=   205.7608
   Eigenvalues:   204.9448   211.8233   226.4899
      8  O    Isotropic =   350.1860   Anisotropy =    87.2260
   XX=   321.9634   YX=    -3.1415   ZX=     9.2701
   XY=     1.0920   YY=   323.0580   ZY=    -1.2478
   XZ=    -7.0347   YZ=   -29.5490   ZZ=   405.5366
   Eigenvalues:   319.9485   322.2729   408.3367
      9  C    Isotropic =   212.0927   Anisotropy =    18.7643
   XX=   223.3049   YX=    -2.7356   ZX=     1.5776
   XY=    -3.3310   YY=   207.6032   ZY=    -2.4375
   XZ=     5.3544   YZ=    -1.2324   ZZ=   205.3699
   Eigenvalues:   204.1803   207.4956   224.6022
     10  C    Isotropic =   224.1765   Anisotropy =    20.3574
   XX=   218.8115   YX=    -1.6220   ZX=     2.9330
   XY=     0.0101   YY=   218.1646   ZY=    -5.5602
   XZ=     0.2493   YZ=    -6.9991   ZZ=   235.5535
   Eigenvalues:   216.1040   218.6776   237.7481
     11  C    Isotropic =   220.4658   Anisotropy =    27.3445
   XX=   228.3633   YX=    10.2437   ZX=    -7.1007
   XY=    11.8327   YY=   217.3357   ZY=    -9.3476
   XZ=    -3.6266   YZ=    -7.0044   ZZ=   215.6986
   Eigenvalues:   207.3932   215.3089   238.6955
     12  H    Isotropic =    32.5374   Anisotropy =    14.1613
   XX=    31.9299   YX=    -3.3103   ZX=    -6.1187
   XY=    -3.4038   YY=    32.1385   ZY=     4.0866
   XZ=    -6.1447   YZ=     4.6089   ZZ=    33.5438
   Eigenvalues:    26.5155    29.1184    41.9783
     13  H    Isotropic =    32.6102   Anisotropy =    14.4326
   XX=    35.3501   YX=     6.7035   ZX=    -3.4509
   XY=     7.0576   YY=    33.0919   ZY=    -1.3246
   XZ=    -3.5251   YZ=    -1.7083   ZZ=    29.3886
   Eigenvalues:    26.6019    28.9968    42.2319
     14  H    Isotropic =    32.6237   Anisotropy =     7.9446
   XX=    34.3566   YX=    -1.6448   ZX=     1.1215
   XY=    -1.6088   YY=    27.8992   ZY=    -3.6930
   XZ=     1.3210   YZ=    -3.5589   ZZ=    35.6152
   Eigenvalues:    26.3172    33.6337    37.9201
     15  H    Isotropic =    32.4386   Anisotropy =    15.3493
   XX=    38.9698   YX=    -3.7329   ZX=     5.1585
   XY=    -3.7461   YY=    28.1912   ZY=    -2.1105
   XZ=     5.3234   YZ=    -2.0712   ZZ=    30.1548
   Eigenvalues:    26.8263    27.8180    42.6715
     16  H    Isotropic =    31.6390   Anisotropy =     6.2961
   XX=    31.5446   YX=    -0.7225   ZX=    -0.2846
   XY=    -0.6842   YY=    27.6343   ZY=    -1.4077
   XZ=     0.5357   YZ=    -0.3012   ZZ=    35.7380
   Eigenvalues:    27.4305    31.6500    35.8364
     17  H    Isotropic =    32.6614   Anisotropy =     8.9197
   XX=    32.3111   YX=     0.6240   ZX=     0.5212
   XY=     0.1744   YY=    32.3181   ZY=    -5.7069
   XZ=     0.4580   YZ=    -5.7863   ZZ=    33.3550
   Eigenvalues:    26.9931    32.3832    38.6078
     18  H    Isotropic =    32.6030   Anisotropy =    13.5579
   XX=    31.7433   YX=    -2.3194   ZX=    -0.8219
   XY=    -2.6687   YY=    36.6664   ZY=     7.0037
   XZ=    -0.8176   YZ=     7.1323   ZZ=    29.3992
   Eigenvalues:    25.0285    31.1389    41.6416
     19  H    Isotropic =    33.2650   Anisotropy =     8.8238
   XX=    33.2272   YX=     0.5703   ZX=    -0.9783
   XY=     0.4071   YY=    28.5668   ZY=    -3.2108
   XZ=    -1.5648   YZ=    -2.6477   ZZ=    38.0010
   Eigenvalues:    27.7286    32.9189    39.1476
     20  H    Isotropic =    32.5207   Anisotropy =    14.6060
   XX=    34.2311   YX=     6.3848   ZX=     1.1521
   XY=     6.6759   YY=    36.0145   ZY=     3.0629
   XZ=     0.8696   YZ=     2.7187   ZZ=    27.3164
   Eigenvalues:    26.2306    29.0734    42.2580
     21  H    Isotropic =    32.6253   Anisotropy =    13.1110
   XX=    29.3470   YX=    -0.3346   ZX=     1.9281
   XY=    -0.3701   YY=    27.5282   ZY=     0.3110
   XZ=     2.2296   YZ=     0.3756   ZZ=    41.0006
   Eigenvalues:    27.4177    29.0921    41.3659
     22  H    Isotropic =    32.0546   Anisotropy =    13.5316
   XX=    31.2833   YX=    -3.6654   ZX=    -2.9679
   XY=    -3.5083   YY=    37.0311   ZY=     4.6539
   XZ=    -2.7629   YZ=     4.8793   ZZ=    27.8495
   Eigenvalues:    25.4744    29.6138    41.0757
     23  H    Isotropic =    32.9657   Anisotropy =    11.6616
   XX=    30.5308   YX=    -0.1585   ZX=     0.4003
   XY=    -0.0455   YY=    33.5195   ZY=    -6.4182
   XZ=     1.3638   YZ=    -6.5252   ZZ=    34.8467
   Eigenvalues:    27.5860    30.5709    40.7401
     24  H    Isotropic =    35.5215   Anisotropy =    14.8286
   XX=    31.1016   YX=     3.7938   ZX=    -1.7220
   XY=     3.9839   YY=    36.3903   ZY=    -5.4095
   XZ=    -3.0306   YZ=    -7.0507   ZZ=    39.0725
   Eigenvalues:    28.9237    32.2334    45.4072
     25  H    Isotropic =    32.5471   Anisotropy =    11.8438
   XX=    31.9924   YX=    -2.8632   ZX=    -1.4229
   XY=    -2.8512   YY=    36.2367   ZY=     5.5012
   XZ=    -1.4118   YZ=     5.3679   ZZ=    29.4123
   Eigenvalues:    26.4033    30.7951    40.4430
     26  H    Isotropic =    32.4293   Anisotropy =     9.4728
   XX=    29.0215   YX=    -1.3012   ZX=     1.8862
   XY=    -1.3491   YY=    32.1911   ZY=     4.0069
   XZ=     1.8643   YZ=     4.1737   ZZ=    36.0753
   Eigenvalues:    27.1331    31.4103    38.7445
     27  H    Isotropic =    32.6029   Anisotropy =    10.8805
   XX=    33.0033   YX=     3.7275   ZX=    -0.4234
   XY=     3.5534   YY=    32.5095   ZY=    -6.0207
   XZ=    -0.7690   YZ=    -6.0969   ZZ=    32.2958
   Eigenvalues:    25.6613    32.2908    39.8566
     28  H    Isotropic =    32.4896   Anisotropy =    14.8943
   XX=    37.1208   YX=    -5.0745   ZX=     4.4758
   XY=    -5.0347   YY=    29.4646   ZY=    -3.7837
   XZ=     4.4277   YZ=    -3.6468   ZZ=    30.8833
   Eigenvalues:    26.1788    28.8709    42.4191
     29  H    Isotropic =    31.9997   Anisotropy =     9.1898
   XX=    32.4657   YX=     2.5955   ZX=     0.5690
   XY=     2.7006   YY=    35.7333   ZY=     3.1497
   XZ=     0.0038   YZ=     3.4822   ZZ=    27.8002
   Eigenvalues:    26.5209    31.3520    38.1263
     30  H    Isotropic =    32.7298   Anisotropy =    11.9626
   XX=    31.9402   YX=     1.4092   ZX=    -2.8139
   XY=     1.1699   YY=    28.4045   ZY=    -4.8362
   XZ=    -2.8246   YZ=    -4.0617   ZZ=    37.8447
   Eigenvalues:    26.6328    30.8518    40.7048
     31  H    Isotropic =    32.4073   Anisotropy =    14.9168
   XX=    41.9114   YX=    -2.5461   ZX=    -0.8807
   XY=    -2.2665   YY=    28.1269   ZY=    -1.1727
   XZ=    -0.9365   YZ=    -1.1781   ZZ=    27.1837
   Eigenvalues:    26.0954    28.7748    42.3518
 End of Minotr Frequency-dependent properties file   721 does not exist.
 End of Minotr Frequency-dependent properties file   722 does not exist.

 **********************************************************************

            Population analysis using the SCF density.

 **********************************************************************

 Orbital symmetries:
       Occupied  (A) (A) (A) (A) (A) (A) (A) (A) (A) (A) (A) (A)
                 (A) (A) (A) (A) (A) (A) (A) (A) (A) (A) (A) (A)
                 (A) (A) (A) (A) (A) (A) (A) (A) (A) (A) (A) (A)
                 (A) (A) (A) (A) (A) (A) (A) (A)
       Virtual   (A) (A) (A) (A) (A) (A) (A) (A) (A) (A) (A) (A)
                 (A) (A) (A) (A) (A) (A) (A) (A) (A) (A) (A) (A)
                 (A) (A) (A) (A) (A) (A) (A)
 The electronic state is 1-A.
 Alpha  occ. eigenvalues --  -20.23832 -11.08571 -11.04876 -11.04553 -11.04354
 Alpha  occ. eigenvalues --  -11.03828 -11.03789 -11.03713 -11.03246 -11.02789
 Alpha  occ. eigenvalues --  -11.02456  -1.27956  -1.08353  -1.03664  -0.96791
 Alpha  occ. eigenvalues --   -0.94593  -0.88631  -0.88465  -0.79644  -0.79312
 Alpha  occ. eigenvalues --   -0.72533  -0.70389  -0.62321  -0.59993  -0.58720
 Alpha  occ. eigenvalues --   -0.57473  -0.56318  -0.54852  -0.53314  -0.52447
 Alpha  occ. eigenvalues --   -0.51100  -0.50507  -0.49470  -0.48325  -0.46696
 Alpha  occ. eigenvalues --   -0.45674  -0.44262  -0.43125  -0.42133  -0.41488
 Alpha  occ. eigenvalues --   -0.40280  -0.39445  -0.35985  -0.32400
 Alpha virt. eigenvalues --    0.53650   0.54667   0.56839   0.60426   0.61233
 Alpha virt. eigenvalues --    0.61779   0.62872   0.65016   0.66506   0.66721
 Alpha virt. eigenvalues --    0.67664   0.68612   0.69783   0.70926   0.71958
 Alpha virt. eigenvalues --    0.72485   0.73565   0.74437   0.76239   0.76548
 Alpha virt. eigenvalues --    0.77644   0.78257   0.78967   0.79179   0.80858
 Alpha virt. eigenvalues --    0.81135   0.82249   0.82866   0.83713   0.83895
 Alpha virt. eigenvalues --    0.84528
          Condensed to atoms (all electrons):
              1          2          3          4          5          6
     1  C    4.742886   0.364502  -0.001408  -0.001478   0.000081  -0.023752
     2  C    0.364502   4.743292  -0.018970  -0.021636  -0.002908   0.363126
     3  C   -0.001408  -0.018970   4.741264  -0.021050   0.355883  -0.003894
     4  C   -0.001478  -0.021636  -0.021050   4.758612   0.359955   0.363341
     5  C    0.000081  -0.002908   0.355883   0.359955   4.793117  -0.021080
     6  C   -0.023752   0.363126  -0.003894   0.363341  -0.021080   4.755673
     7  C   -0.023952   0.361224   0.357895  -0.003806  -0.023999  -0.024214
     8  O    0.000001   0.000258   0.269315   0.000230  -0.017214   0.000001
     9  C    0.000000   0.000002  -0.018040  -0.021781   0.358611   0.000638
    10  C    0.000000   0.000000  -0.002517  -0.001301  -0.020254   0.000003
    11  C    0.000000   0.000000  -0.000283   0.000655  -0.021463  -0.000004
    12  H    0.382468  -0.020267   0.000019   0.000006  -0.000002   0.001250
    13  H    0.382371  -0.020292   0.000008   0.000027  -0.000001  -0.002264
    14  H    0.382562  -0.019913  -0.000430  -0.000407   0.000044  -0.001648
    15  H   -0.025054   0.383039   0.001180   0.001241   0.000000  -0.023288
    16  H   -0.000445  -0.000837   0.379106  -0.001117  -0.023565   0.000096
    17  H   -0.000466  -0.001399  -0.001689   0.381576  -0.021747  -0.022979
    18  H    0.000010   0.001240   0.001135   0.382671  -0.021023  -0.022059
    19  H   -0.000001   0.000105  -0.025018  -0.023802   0.378224  -0.001992
    20  H   -0.003019  -0.021246   0.000017  -0.021547   0.001191   0.382552
    21  H    0.001301  -0.022580   0.000035  -0.023494  -0.001765   0.381283
    22  H   -0.003024  -0.020486  -0.021223   0.000012   0.001147   0.001229
    23  H    0.001311  -0.021779  -0.023317   0.000088  -0.001749  -0.001384
    24  H   -0.000001  -0.000005  -0.042194  -0.000004  -0.003090   0.000005
    25  H    0.000000   0.000000   0.001040  -0.004151  -0.023626   0.000032
    26  H    0.000000   0.000000  -0.000681   0.000036  -0.001360  -0.000001
    27  H   -0.000001   0.000001  -0.000042  -0.000649  -0.001738  -0.000003
    28  H    0.000000   0.000000   0.000026   0.000011   0.001116   0.000000
    29  H    0.000000   0.000000  -0.000013  -0.000005  -0.000852   0.000000
    30  H    0.000000   0.000000   0.000031   0.000026  -0.002904  -0.000001
    31  H    0.000000   0.000000  -0.000009  -0.000015   0.001158   0.000000
              7          8          9         10         11         12
     1  C   -0.023952   0.000001   0.000000   0.000000   0.000000   0.382468
     2  C    0.361224   0.000258   0.000002   0.000000   0.000000  -0.020267
     3  C    0.357895   0.269315  -0.018040  -0.002517  -0.000283   0.000019
     4  C   -0.003806   0.000230  -0.021781  -0.001301   0.000655   0.000006
     5  C   -0.023999  -0.017214   0.358611  -0.020254  -0.021463  -0.000002
     6  C   -0.024214   0.000001   0.000638   0.000003  -0.000004   0.001250
     7  C    4.783358  -0.020800   0.000554   0.000010  -0.000004  -0.002255
     8  O   -0.020800   7.846018  -0.000178   0.000013  -0.001145   0.000000
     9  C    0.000554  -0.000178   4.738518   0.364371   0.364151   0.000000
    10  C    0.000010   0.000013   0.364371   4.742008  -0.025899   0.000000
    11  C   -0.000004  -0.001145   0.364151  -0.025899   4.747032   0.000000
    12  H   -0.002255   0.000000   0.000000   0.000000   0.000000   0.629416
    13  H    0.001256   0.000000   0.000000   0.000000   0.000000  -0.021479
    14  H   -0.001645   0.000000   0.000002   0.000000   0.000000  -0.021976
    15  H   -0.023206  -0.000005   0.000001   0.000000   0.000000  -0.002498
    16  H   -0.024635  -0.019005  -0.001834  -0.000679   0.000017   0.000039
    17  H    0.000099   0.000001  -0.001845  -0.000654   0.000001  -0.000003
    18  H    0.000005  -0.000004  -0.002462   0.000054   0.000023   0.000000
    19  H   -0.001880  -0.001235  -0.024136   0.001117  -0.003838   0.000000
    20  H    0.001242   0.000000  -0.000013   0.000000   0.000000   0.000033
    21  H   -0.001385  -0.000001   0.000004  -0.000001   0.000000  -0.000035
    22  H    0.382050  -0.000543  -0.000012   0.000000   0.000000   0.000187
    23  H    0.379143  -0.001581   0.000000   0.000000   0.000000   0.000027
    24  H   -0.003006   0.257595  -0.000004   0.000004  -0.000150   0.000000
    25  H   -0.000014  -0.000008   0.381696  -0.024696  -0.025720   0.000000
    26  H    0.000003   0.000042  -0.020250   0.382778  -0.002516   0.000000
    27  H   -0.000002   0.000002  -0.019859   0.382253   0.001324   0.000000
    28  H    0.000000  -0.000001  -0.019924   0.382403  -0.002237   0.000000
    29  H    0.000001   0.000226  -0.019808  -0.002869   0.382728   0.000000
    30  H   -0.000001  -0.000017  -0.020381   0.001305   0.381871   0.000000
    31  H    0.000000   0.000017  -0.020185  -0.001655   0.381685   0.000000
             13         14         15         16         17         18
     1  C    0.382371   0.382562  -0.025054  -0.000445  -0.000466   0.000010
     2  C   -0.020292  -0.019913   0.383039  -0.000837  -0.001399   0.001240
     3  C    0.000008  -0.000430   0.001180   0.379106  -0.001689   0.001135
     4  C    0.000027  -0.000407   0.001241  -0.001117   0.381576   0.382671
     5  C   -0.000001   0.000044   0.000000  -0.023565  -0.021747  -0.021023
     6  C   -0.002264  -0.001648  -0.023288   0.000096  -0.022979  -0.022059
     7  C    0.001256  -0.001645  -0.023206  -0.024635   0.000099   0.000005
     8  O    0.000000   0.000000  -0.000005  -0.019005   0.000001  -0.000004
     9  C    0.000000   0.000002   0.000001  -0.001834  -0.001845  -0.002462
    10  C    0.000000   0.000000   0.000000  -0.000679  -0.000654   0.000054
    11  C    0.000000   0.000000   0.000000   0.000017   0.000001   0.000023
    12  H   -0.021479  -0.021976  -0.002498   0.000039  -0.000003   0.000000
    13  H    0.630344  -0.021962  -0.002471   0.000000   0.000050  -0.000004
    14  H   -0.021962   0.631334   0.001915  -0.000565  -0.000564  -0.000003
    15  H   -0.002471   0.001915   0.649401  -0.000014  -0.000006  -0.000032
    16  H    0.000000  -0.000565  -0.000014   0.629148   0.000212  -0.000009
    17  H    0.000050  -0.000564  -0.000006   0.000212   0.642913  -0.023620
    18  H   -0.000004  -0.000003  -0.000032  -0.000009  -0.023620   0.640751
    19  H    0.000000  -0.000003  -0.000016   0.001768   0.001895  -0.002686
    20  H    0.000197   0.000019  -0.001368  -0.000006  -0.002753  -0.001875
    21  H    0.000029  -0.000003  -0.003560   0.000002   0.001987  -0.003062
    22  H    0.000034   0.000015  -0.001366  -0.002949  -0.000008   0.000002
    23  H   -0.000035  -0.000003  -0.003666   0.001845   0.000003  -0.000010
    24  H    0.000000  -0.000001   0.000000   0.003602   0.000000   0.000000
    25  H    0.000000   0.000000   0.000000   0.000004   0.000036   0.000113
    26  H    0.000000   0.000000   0.000000  -0.000839   0.000034  -0.000001
    27  H    0.000000   0.000001   0.000000  -0.000019  -0.000474   0.000039
    28  H    0.000000   0.000000   0.000000   0.000005  -0.000008  -0.000004
    29  H    0.000000   0.000000   0.000000   0.000000   0.000000  -0.000001
    30  H    0.000000   0.000000   0.000000   0.000000   0.000000   0.000005
    31  H    0.000000   0.000000   0.000000  -0.000001   0.000000  -0.000001
             19         20         21         22         23         24
     1  C   -0.000001  -0.003019   0.001301  -0.003024   0.001311  -0.000001
     2  C    0.000105  -0.021246  -0.022580  -0.020486  -0.021779  -0.000005
     3  C   -0.025018   0.000017   0.000035  -0.021223  -0.023317  -0.042194
     4  C   -0.023802  -0.021547  -0.023494   0.000012   0.000088  -0.000004
     5  C    0.378224   0.001191  -0.001765   0.001147  -0.001749  -0.003090
     6  C   -0.001992   0.382552   0.381283   0.001229  -0.001384   0.000005
     7  C   -0.001880   0.001242  -0.001385   0.382050   0.379143  -0.003006
     8  O   -0.001235   0.000000  -0.000001  -0.000543  -0.001581   0.257595
     9  C   -0.024136  -0.000013   0.000004  -0.000012   0.000000  -0.000004
    10  C    0.001117   0.000000  -0.000001   0.000000   0.000000   0.000004
    11  C   -0.003838   0.000000   0.000000   0.000000   0.000000  -0.000150
    12  H    0.000000   0.000033  -0.000035   0.000187   0.000027   0.000000
    13  H    0.000000   0.000197   0.000029   0.000034  -0.000035   0.000000
    14  H   -0.000003   0.000019  -0.000003   0.000015  -0.000003  -0.000001
    15  H   -0.000016  -0.001368  -0.003560  -0.001366  -0.003666   0.000000
    16  H    0.001768  -0.000006   0.000002  -0.002949   0.001845   0.003602
    17  H    0.001895  -0.002753   0.001987  -0.000008   0.000003   0.000000
    18  H   -0.002686  -0.001875  -0.003062   0.000002  -0.000010   0.000000
    19  H    0.662442   0.000009   0.000332  -0.000002   0.000257   0.000760
    20  H    0.000009   0.638741  -0.023335  -0.000033   0.000008   0.000000
    21  H    0.000332  -0.023335   0.647632   0.000004   0.000176   0.000000
    22  H   -0.000002  -0.000033   0.000004   0.632073  -0.024498  -0.000019
    23  H    0.000257   0.000008   0.000176  -0.024498   0.652241   0.000723
    24  H    0.000760   0.000000   0.000000  -0.000019   0.000723   0.609679
    25  H   -0.001160  -0.000002   0.000003   0.000000   0.000000  -0.000005
    26  H   -0.000001   0.000000   0.000000   0.000001   0.000000  -0.000010
    27  H    0.000008   0.000001   0.000000   0.000000   0.000000  -0.000001
    28  H   -0.000028   0.000000   0.000000   0.000000   0.000000   0.000000
    29  H    0.000031   0.000000   0.000000   0.000000   0.000000  -0.000438
    30  H    0.000205   0.000000   0.000000   0.000000   0.000000  -0.000066
    31  H    0.000048   0.000000   0.000000   0.000000   0.000000   0.000004
             25         26         27         28         29         30
     1  C    0.000000   0.000000  -0.000001   0.000000   0.000000   0.000000
     2  C    0.000000   0.000000   0.000001   0.000000   0.000000   0.000000
     3  C    0.001040  -0.000681  -0.000042   0.000026  -0.000013   0.000031
     4  C   -0.004151   0.000036  -0.000649   0.000011  -0.000005   0.000026
     5  C   -0.023626  -0.001360  -0.001738   0.001116  -0.000852  -0.002904
     6  C    0.000032  -0.000001  -0.000003   0.000000   0.000000  -0.000001
     7  C   -0.000014   0.000003  -0.000002   0.000000   0.000001  -0.000001
     8  O   -0.000008   0.000042   0.000002  -0.000001   0.000226  -0.000017
     9  C    0.381696  -0.020250  -0.019859  -0.019924  -0.019808  -0.020381
    10  C   -0.024696   0.382778   0.382253   0.382403  -0.002869   0.001305
    11  C   -0.025720  -0.002516   0.001324  -0.002237   0.382728   0.381871
    12  H    0.000000   0.000000   0.000000   0.000000   0.000000   0.000000
    13  H    0.000000   0.000000   0.000000   0.000000   0.000000   0.000000
    14  H    0.000000   0.000000   0.000001   0.000000   0.000000   0.000000
    15  H    0.000000   0.000000   0.000000   0.000000   0.000000   0.000000
    16  H    0.000004  -0.000839  -0.000019   0.000005   0.000000   0.000000
    17  H    0.000036   0.000034  -0.000474  -0.000008   0.000000   0.000000
    18  H    0.000113  -0.000001   0.000039  -0.000004  -0.000001   0.000005
    19  H   -0.001160  -0.000001   0.000008  -0.000028   0.000031   0.000205
    20  H   -0.000002   0.000000   0.000001   0.000000   0.000000   0.000000
    21  H    0.000003   0.000000   0.000000   0.000000   0.000000   0.000000
    22  H    0.000000   0.000001   0.000000   0.000000   0.000000   0.000000
    23  H    0.000000   0.000000   0.000000   0.000000   0.000000   0.000000
    24  H   -0.000005  -0.000010  -0.000001   0.000000  -0.000438  -0.000066
    25  H    0.656208   0.001911  -0.001959  -0.002846   0.001941  -0.001547
    26  H    0.001911   0.625157  -0.021760  -0.021868   0.000377   0.000016
    27  H   -0.001959  -0.021760   0.633377  -0.021965   0.000023  -0.000037
    28  H   -0.002846  -0.021868  -0.021965   0.630640  -0.000030   0.000027
    29  H    0.001941   0.000377   0.000023  -0.000030   0.615331  -0.021376
    30  H   -0.001547   0.000016  -0.000037   0.000027  -0.021376   0.637639
    31  H   -0.003729  -0.000008   0.000014   0.000107  -0.022118  -0.021864
             31
     1  C    0.000000
     2  C    0.000000
     3  C   -0.000009
     4  C   -0.000015
     5  C    0.001158
     6  C    0.000000
     7  C    0.000000
     8  O    0.000017
     9  C   -0.020185
    10  C   -0.001655
    11  C    0.381685
    12  H    0.000000
    13  H    0.000000
    14  H    0.000000
    15  H    0.000000
    16  H   -0.000001
    17  H    0.000000
    18  H   -0.000001
    19  H    0.000048
    20  H    0.000000
    21  H    0.000000
    22  H    0.000000
    23  H    0.000000
    24  H    0.000004
    25  H   -0.003729
    26  H   -0.000008
    27  H    0.000014
    28  H    0.000107
    29  H   -0.022118
    30  H   -0.021864
    31  H    0.635021
 Mulliken atomic charges:
              1
     1  C   -0.174891
     2  C   -0.024469
     3  C    0.073823
     4  C   -0.102245
     5  C   -0.040190
     6  C   -0.100668
     7  C   -0.112036
     8  O   -0.311983
     9  C   -0.017835
    10  C   -0.175796
    11  C   -0.176228
    12  H    0.055070
    13  H    0.054191
    14  H    0.053231
    15  H    0.049775
    16  H    0.060675
    17  H    0.049408
    18  H    0.050808
    19  H    0.038596
    20  H    0.051188
    21  H    0.046431
    22  H    0.057409
    23  H    0.042200
    24  H    0.176619
    25  H    0.046480
    26  H    0.058941
    27  H    0.051469
    28  H    0.054575
    29  H    0.066851
    30  H    0.047070
    31  H    0.051530
 Sum of Mulliken atomic charges =   0.00000
 Mulliken charges with hydrogens summed into heavy atoms:
              1
     1  C   -0.012399
     2  C    0.025306
     3  C    0.134499
     4  C   -0.002029
     5  C   -0.001594
     6  C   -0.003049
     7  C   -0.012427
     8  O   -0.135364
     9  C    0.028645
    10  C   -0.010811
    11  C   -0.010778
 Sum of Mulliken charges with hydrogens summed into heavy atoms =   0.00000
 Electronic spatial extent (au):  <R**2>=           2025.9899
 Charge=              0.0000 electrons
 Dipole moment (field-independent basis, Debye):
    X=             -0.6819    Y=             -0.7359    Z=             -1.0919  Tot=              1.4829
 Quadrupole moment (field-independent basis, Debye-Ang):
   XX=            -68.4292   YY=            -69.6748   ZZ=            -66.7611
   XY=             -1.5351   XZ=             -1.0575   YZ=             -2.8055
 Traceless Quadrupole moment (field-independent basis, Debye-Ang):
   XX=             -0.1408   YY=             -1.3864   ZZ=              1.5273
   XY=             -1.5351   XZ=             -1.0575   YZ=             -2.8055
 Octapole moment (field-independent basis, Debye-Ang**2):
  XXX=              3.3131  YYY=              6.6978  ZZZ=             -1.2927  XYY=             -1.6750
  XXY=              1.5298  XXZ=             -0.0492  XZZ=              2.1959  YZZ=              6.8047
  YYZ=             -6.5351  XYZ=             -2.5267
 Hexadecapole moment (field-independent basis, Debye-Ang**3):
 XXXX=          -1653.7755 YYYY=           -567.0546 ZZZZ=           -365.2715 XXXY=              1.1510
 XXXZ=              7.0106 YYYX=              6.2787 YYYZ=            -13.3644 ZZZX=             -0.3805
 ZZZY=              0.8380 XXYY=           -365.7920 XXZZ=           -342.1041 YYZZ=           -149.1582
 XXYZ=              0.5455 YYXZ=             -8.4024 ZZXY=              3.2077
 N-N= 6.991191897798D+02 E-N=-2.470165441056D+03  KE= 4.555407031078D+02
 ******************************Gaussian NBO Version 3.1******************************
             N A T U R A L   A T O M I C   O R B I T A L   A N D
          N A T U R A L   B O N D   O R B I T A L   A N A L Y S I S
 ******************************Gaussian NBO Version 3.1******************************
       /RESON  / : Allow strongly delocalized NBO set
       /NLMO   / : Form Natural Localized Molecular Orbitals
       /NMR /    : Analyze NMR Sheilding Tensor 

 Analyzing the SCF density

 Job title: comment                                                         

 Storage needed:     19864 in NPA,     23691 in NBO,     45933 in NLMO (  33549317 available)


 NATURAL POPULATIONS:  Natural atomic orbital occupancies 
                                                          
   NAO  Atom  No  lang   Type(AO)    Occupancy      Energy
 ----------------------------------------------------------
     1    C    1  S      Cor( 1S)     1.99997     -10.96606
     2    C    1  S      Val( 2S)     1.07957      -0.18304
     3    C    1  px     Val( 2p)     1.02604       0.08097
     4    C    1  py     Val( 2p)     1.02730       0.08226
     5    C    1  pz     Val( 2p)     0.99726       0.08760

     6    C    2  S      Cor( 1S)     1.99997     -10.99123
     7    C    2  S      Val( 2S)     1.07884      -0.19346
     8    C    2  px     Val( 2p)     0.98179       0.10114
     9    C    2  py     Val( 2p)     0.96194       0.10625
    10    C    2  pz     Val( 2p)     0.96352       0.10690

    11    C    3  S      Cor( 1S)     1.99989     -11.03474
    12    C    3  S      Val( 2S)     1.08731      -0.21644
    13    C    3  px     Val( 2p)     0.90710       0.10290
    14    C    3  py     Val( 2p)     0.86369       0.11680
    15    C    3  pz     Val( 2p)     1.00237       0.07891

    16    C    4  S      Cor( 1S)     1.99996     -10.97641
    17    C    4  S      Val( 2S)     1.08479      -0.19126
    18    C    4  px     Val( 2p)     0.97419       0.09680
    19    C    4  py     Val( 2p)     0.98860       0.09309
    20    C    4  pz     Val( 2p)     1.01674       0.09068

    21    C    5  S      Cor( 1S)     1.99996     -10.98906
    22    C    5  S      Val( 2S)     1.10395      -0.21392
    23    C    5  px     Val( 2p)     0.96144       0.10237
    24    C    5  py     Val( 2p)     0.96613       0.10111
    25    C    5  pz     Val( 2p)     0.98711       0.09684

    26    C    6  S      Cor( 1S)     1.99996     -10.97628
    27    C    6  S      Val( 2S)     1.08298      -0.18974
    28    C    6  px     Val( 2p)     0.98403       0.09621
    29    C    6  py     Val( 2p)     0.99525       0.09451
    30    C    6  pz     Val( 2p)     1.00118       0.09079

    31    C    7  S      Cor( 1S)     1.99996     -10.97557
    32    C    7  S      Val( 2S)     1.09298      -0.19931
    33    C    7  px     Val( 2p)     0.98557       0.08886
    34    C    7  py     Val( 2p)     0.99377       0.09073
    35    C    7  pz     Val( 2p)     1.01596       0.08582

    36    O    8  S      Cor( 1S)     1.99999     -20.14197
    37    O    8  S      Val( 2S)     1.74864      -0.99822
    38    O    8  px     Val( 2p)     1.74642      -0.27722
    39    O    8  py     Val( 2p)     1.48348      -0.16811
    40    O    8  pz     Val( 2p)     1.35395      -0.12843

    41    C    9  S      Cor( 1S)     1.99996     -10.98969
    42    C    9  S      Val( 2S)     1.08487      -0.19432
    43    C    9  px     Val( 2p)     0.94834       0.11449
    44    C    9  py     Val( 2p)     0.98259       0.10468
    45    C    9  pz     Val( 2p)     0.96103       0.11357

    46    C   10  S      Cor( 1S)     1.99997     -10.96154
    47    C   10  S      Val( 2S)     1.07965      -0.17851
    48    C   10  px     Val( 2p)     1.02908       0.08570
    49    C   10  py     Val( 2p)     1.02884       0.08711
    50    C   10  pz     Val( 2p)     0.99457       0.09135

    51    C   11  S      Cor( 1S)     1.99997     -10.95824
    52    C   11  S      Val( 2S)     1.08174      -0.17702
    53    C   11  px     Val( 2p)     1.00705       0.09094
    54    C   11  py     Val( 2p)     1.02103       0.08976
    55    C   11  pz     Val( 2p)     1.02276       0.09161

    56    H   12  S      Val( 1S)     0.96219       0.07423

    57    H   13  S      Val( 1S)     0.96298       0.07343

    58    H   14  S      Val( 1S)     0.96412       0.07396

    59    H   15  S      Val( 1S)     0.97439       0.06530

    60    H   16  S      Val( 1S)     0.97475       0.05961

    61    H   17  S      Val( 1S)     0.97197       0.07094

    62    H   18  S      Val( 1S)     0.97008       0.06920

    63    H   19  S      Val( 1S)     0.98592       0.05445

    64    H   20  S      Val( 1S)     0.96950       0.06923

    65    H   21  S      Val( 1S)     0.97414       0.06630

    66    H   22  S      Val( 1S)     0.96366       0.07294

    67    H   23  S      Val( 1S)     0.97749       0.05947

    68    H   24  S      Val( 1S)     0.81105       0.07539

    69    H   25  S      Val( 1S)     0.97882       0.06670

    70    H   26  S      Val( 1S)     0.95886       0.08335

    71    H   27  S      Val( 1S)     0.96571       0.07723

    72    H   28  S      Val( 1S)     0.96233       0.07746

    73    H   29  S      Val( 1S)     0.95212       0.09312

    74    H   30  S      Val( 1S)     0.96953       0.07433

    75    H   31  S      Val( 1S)     0.96537       0.07796


 Summary of Natural Population Analysis:                  
                                                          
                                       Natural Population 
                Natural  -----------------------------------------------
    Atom  No    Charge         Core      Valence    Rydberg      Total
 -----------------------------------------------------------------------
      C    1   -0.13014      1.99997     4.13017    0.00000     6.13014
      C    2    0.01395      1.99997     3.98608    0.00000     5.98605
      C    3    0.13964      1.99989     3.86047    0.00000     5.86036
      C    4   -0.06429      1.99996     4.06433    0.00000     6.06429
      C    5   -0.01858      1.99996     4.01862    0.00000     6.01858
      C    6   -0.06341      1.99996     4.06345    0.00000     6.06341
      C    7   -0.08824      1.99996     4.08828    0.00000     6.08824
      O    8   -0.33248      1.99999     6.33249    0.00000     8.33248
      C    9    0.02321      1.99996     3.97683    0.00000     5.97679
      C   10   -0.13211      1.99997     4.13214    0.00000     6.13211
      C   11   -0.13256      1.99997     4.13259    0.00000     6.13256
      H   12    0.03781      0.00000     0.96219    0.00000     0.96219
      H   13    0.03702      0.00000     0.96298    0.00000     0.96298
      H   14    0.03588      0.00000     0.96412    0.00000     0.96412
      H   15    0.02561      0.00000     0.97439    0.00000     0.97439
      H   16    0.02525      0.00000     0.97475    0.00000     0.97475
      H   17    0.02803      0.00000     0.97197    0.00000     0.97197
      H   18    0.02992      0.00000     0.97008    0.00000     0.97008
      H   19    0.01408      0.00000     0.98592    0.00000     0.98592
      H   20    0.03050      0.00000     0.96950    0.00000     0.96950
      H   21    0.02586      0.00000     0.97414    0.00000     0.97414
      H   22    0.03634      0.00000     0.96366    0.00000     0.96366
      H   23    0.02251      0.00000     0.97749    0.00000     0.97749
      H   24    0.18895      0.00000     0.81105    0.00000     0.81105
      H   25    0.02118      0.00000     0.97882    0.00000     0.97882
      H   26    0.04114      0.00000     0.95886    0.00000     0.95886
      H   27    0.03429      0.00000     0.96571    0.00000     0.96571
      H   28    0.03767      0.00000     0.96233    0.00000     0.96233
      H   29    0.04788      0.00000     0.95212    0.00000     0.95212
      H   30    0.03047      0.00000     0.96953    0.00000     0.96953
      H   31    0.03463      0.00000     0.96537    0.00000     0.96537
 =======================================================================
   * Total *    0.00000     21.99956    66.00044    0.00000    88.00000

                                 Natural Population      
 --------------------------------------------------------
   Core                      21.99956 ( 99.9980% of  22)
   Valence                   66.00044 (100.0007% of  66)
   Natural Minimal Basis     88.00000 (100.0000% of  88)
   Natural Rydberg Basis      0.00000 (  0.0000% of  88)
 --------------------------------------------------------

    Atom  No          Natural Electron Configuration
 ----------------------------------------------------------------------------
      C    1      [core]2S( 1.08)2p( 3.05)
      C    2      [core]2S( 1.08)2p( 2.91)
      C    3      [core]2S( 1.09)2p( 2.77)
      C    4      [core]2S( 1.08)2p( 2.98)
      C    5      [core]2S( 1.10)2p( 2.91)
      C    6      [core]2S( 1.08)2p( 2.98)
      C    7      [core]2S( 1.09)2p( 3.00)
      O    8      [core]2S( 1.75)2p( 4.58)
      C    9      [core]2S( 1.08)2p( 2.89)
      C   10      [core]2S( 1.08)2p( 3.05)
      C   11      [core]2S( 1.08)2p( 3.05)
      H   12            1S( 0.96)
      H   13            1S( 0.96)
      H   14            1S( 0.96)
      H   15            1S( 0.97)
      H   16            1S( 0.97)
      H   17            1S( 0.97)
      H   18            1S( 0.97)
      H   19            1S( 0.99)
      H   20            1S( 0.97)
      H   21            1S( 0.97)
      H   22            1S( 0.96)
      H   23            1S( 0.98)
      H   24            1S( 0.81)
      H   25            1S( 0.98)
      H   26            1S( 0.96)
      H   27            1S( 0.97)
      H   28            1S( 0.96)
      H   29            1S( 0.95)
      H   30            1S( 0.97)
      H   31            1S( 0.97)


 NATURAL BOND ORBITAL ANALYSIS:

                       Occupancies       Lewis Structure    Low   High
           Occ.    -------------------  -----------------   occ   occ
  Cycle   Thresh.   Lewis   Non-Lewis     CR  BD  3C  LP    (L)   (NL)   Dev
 =============================================================================
   1(1)    1.90    87.63316   0.36684     11  31   0   2     0      0    0.02
 -----------------------------------------------------------------------------

 Structure accepted: No low occupancy Lewis orbitals

 --------------------------------------------------------
   Core                     21.99955 ( 99.998% of  22)
   Valence Lewis            65.63361 ( 99.445% of  66)
  ==================       ============================
   Total Lewis              87.63316 ( 99.583% of  88)
  -----------------------------------------------------
   Valence non-Lewis         0.36684 (  0.417% of  88)
   Rydberg non-Lewis         0.00000 (  0.000% of  88)
  ==================       ============================
   Total non-Lewis           0.36684 (  0.417% of  88)
 --------------------------------------------------------


       (Occupancy)   Bond orbital/ Coefficients/ Hybrids
 ---------------------------------------------------------------------------------
     1. (1.99025) BD ( 1) C   1 - C   2  
                ( 50.89%)   0.7134* C   1 s( 25.82%)p 2.87( 74.18%)
                                            0.0001  0.5081  0.2490  0.2364 -0.7899
                ( 49.11%)   0.7008* C   2 s( 25.14%)p 2.98( 74.86%)
                                            0.0000  0.5014 -0.2041 -0.2491  0.8030
     2. (1.99482) BD ( 1) C   1 - H  12  
                ( 51.89%)   0.7204* C   1 s( 24.63%)p 3.06( 75.37%)
                                            0.0000  0.4963 -0.3622  0.6757  0.4073
                ( 48.11%)   0.6936* H  12 s(100.00%)
                                            1.0000
     3. (1.99483) BD ( 1) C   1 - H  13  
                ( 51.85%)   0.7201* C   1 s( 24.63%)p 3.06( 75.37%)
                                            0.0000  0.4962 -0.5815 -0.6422 -0.0563
                ( 48.15%)   0.6939* H  13 s(100.00%)
                                            1.0000
     4. (1.99498) BD ( 1) C   1 - H  14  
                ( 51.85%)   0.7201* C   1 s( 24.93%)p 3.01( 75.07%)
                                            0.0000  0.4993  0.6846 -0.2740  0.4549
                ( 48.15%)   0.6939* H  14 s(100.00%)
                                            1.0000
     5. (1.98520) BD ( 1) C   2 - C   6  
                ( 49.67%)   0.7048* C   2 s( 25.16%)p 2.97( 74.84%)
                                            0.0000  0.5016  0.3461 -0.6651 -0.4315
                ( 50.33%)   0.7094* C   6 s( 25.40%)p 2.94( 74.60%)
                                            0.0001  0.5040 -0.3167  0.6532  0.4680
     6. (1.98397) BD ( 1) C   2 - C   7  
                ( 49.40%)   0.7029* C   2 s( 25.13%)p 2.98( 74.87%)
                                            0.0000  0.5013  0.5681  0.6519  0.0336
                ( 50.60%)   0.7113* C   7 s( 25.67%)p 2.90( 74.33%)
                                            0.0001  0.5067 -0.5398 -0.6723 -0.0017
     7. (1.98438) BD ( 1) C   2 - H  15  
                ( 51.17%)   0.7153* C   2 s( 24.57%)p 3.07( 75.43%)
                                            0.0000  0.4957 -0.7182  0.2658 -0.4097
                ( 48.83%)   0.6988* H  15 s(100.00%)
                                            1.0000
     8. (1.98332) BD ( 1) C   3 - C   5  
                ( 49.92%)   0.7065* C   3 s( 25.75%)p 2.88( 74.25%)
                                            0.0001  0.5074  0.3274 -0.6469 -0.4657
                ( 50.08%)   0.7077* C   5 s( 25.39%)p 2.94( 74.61%)
                                            0.0000  0.5039 -0.3037  0.6419  0.4918
     9. (1.98733) BD ( 1) C   3 - C   7  
                ( 49.33%)   0.7024* C   3 s( 25.41%)p 2.94( 74.59%)
                                            0.0000  0.5040 -0.7910  0.1993 -0.2838
                ( 50.67%)   0.7118* C   7 s( 25.28%)p 2.96( 74.72%)
                                            0.0000  0.5028  0.7819 -0.2495  0.2712
    10. (1.98747) BD ( 1) C   3 - O   8  
                ( 41.09%)   0.6410* C   3 s( 22.45%)p 3.45( 77.55%)
                                            0.0000  0.4739  0.5163  0.7061 -0.1015
                ( 58.91%)   0.7676* O   8 s( 16.60%)p 5.02( 83.40%)
                                            0.0000  0.4075 -0.5298 -0.7438 -0.0008
    11. (1.98596) BD ( 1) C   3 - H  16  
                ( 51.40%)   0.7170* C   3 s( 26.39%)p 2.79( 73.61%)
                                            0.0000  0.5137 -0.0236 -0.2079  0.8321
                ( 48.60%)   0.6971* H  16 s(100.00%)
                                            1.0000
    12. (1.98335) BD ( 1) C   4 - C   5  
                ( 50.40%)   0.7099* C   4 s( 25.30%)p 2.95( 74.70%)
                                            0.0001  0.5029  0.5398  0.6750  0.0027
                ( 49.60%)   0.7043* C   5 s( 24.81%)p 3.03( 75.19%)
                                            0.0000  0.4981 -0.5483 -0.6712  0.0270
    13. (1.98992) BD ( 1) C   4 - C   6  
                ( 49.96%)   0.7068* C   4 s( 25.19%)p 2.97( 74.81%)
                                            0.0000  0.5019 -0.7833  0.2535 -0.2650
                ( 50.04%)   0.7074* C   6 s( 25.32%)p 2.95( 74.68%)
                                            0.0000  0.5032  0.7861 -0.2138  0.2885
    14. (1.98992) BD ( 1) C   4 - H  17  
                ( 51.44%)   0.7172* C   4 s( 24.76%)p 3.04( 75.24%)
                                            0.0000  0.4976 -0.0582 -0.3274  0.8011
                ( 48.56%)   0.6968* H  17 s(100.00%)
                                            1.0000
    15. (1.98944) BD ( 1) C   4 - H  18  
                ( 51.46%)   0.7174* C   4 s( 24.75%)p 3.04( 75.25%)
                                            0.0000  0.4975  0.3027 -0.6106 -0.5366
                ( 48.54%)   0.6967* H  18 s(100.00%)
                                            1.0000
    16. (1.97906) BD ( 1) C   5 - C   9  
                ( 50.30%)   0.7092* C   5 s( 25.56%)p 2.91( 74.44%)
                                            0.0001  0.5056  0.7761 -0.2474  0.2843
                ( 49.70%)   0.7050* C   9 s( 25.41%)p 2.94( 74.59%)
                                            0.0001  0.5041 -0.7869  0.2958 -0.1981
    17. (1.98332) BD ( 1) C   5 - H  19  
                ( 50.62%)   0.7115* C   5 s( 24.24%)p 3.13( 75.76%)
                                            0.0000  0.4923  0.0687  0.2762 -0.8226
                ( 49.38%)   0.7027* H  19 s(100.00%)
                                            1.0000
    18. (1.98976) BD ( 1) C   6 - H  20  
                ( 51.50%)   0.7177* C   6 s( 24.98%)p 3.00( 75.02%)
                                            0.0000  0.4998 -0.5278 -0.6842  0.0594
                ( 48.50%)   0.6964* H  20 s(100.00%)
                                            1.0000
    19. (1.99042) BD ( 1) C   6 - H  21  
                ( 51.29%)   0.7162* C   6 s( 24.30%)p 3.12( 75.70%)
                                            0.0000  0.4929  0.0566  0.2440 -0.8332
                ( 48.71%)   0.6979* H  21 s(100.00%)
                                            1.0000
    20. (1.98942) BD ( 1) C   7 - H  22  
                ( 51.80%)   0.7197* C   7 s( 24.97%)p 3.00( 75.03%)
                                            0.0000  0.4997 -0.3048  0.6200  0.5225
                ( 48.20%)   0.6943* H  22 s(100.00%)
                                            1.0000
    21. (1.98894) BD ( 1) C   7 - H  23  
                ( 51.11%)   0.7149* C   7 s( 24.07%)p 3.15( 75.93%)
                                            0.0000  0.4906  0.0665  0.3185 -0.8083
                ( 48.89%)   0.6992* H  23 s(100.00%)
                                            1.0000
    22. (1.98951) BD ( 1) O   8 - H  24  
                ( 59.50%)   0.7713* O   8 s( 16.81%)p 4.95( 83.19%)
                                            0.0000 -0.4100 -0.0397 -0.1972  0.8896
                ( 40.50%)   0.6364* H  24 s(100.00%)
                                           -1.0000
    23. (1.99010) BD ( 1) C   9 - C  10  
                ( 49.09%)   0.7007* C   9 s( 25.33%)p 2.95( 74.67%)
                                            0.0000  0.5033  0.0520 -0.1506  0.8493
                ( 50.91%)   0.7135* C  10 s( 25.83%)p 2.87( 74.17%)
                                            0.0001  0.5082 -0.0907  0.1789 -0.8376
    24. (1.98962) BD ( 1) C   9 - C  11  
                ( 49.16%)   0.7011* C   9 s( 25.07%)p 2.99( 74.93%)
                                            0.0000  0.5007  0.5976  0.5824 -0.2300
                ( 50.84%)   0.7130* C  11 s( 25.81%)p 2.87( 74.19%)
                                            0.0001  0.5080 -0.6297 -0.5356  0.2420
    25. (1.98387) BD ( 1) C   9 - H  25  
                ( 50.94%)   0.7138* C   9 s( 24.19%)p 3.13( 75.81%)
                                            0.0000  0.4918  0.1449 -0.7420 -0.4319
                ( 49.06%)   0.7004* H  25 s(100.00%)
                                            1.0000
    26. (1.99504) BD ( 1) C  10 - H  26  
                ( 52.10%)   0.7218* C  10 s( 24.85%)p 3.02( 75.15%)
                                            0.0000  0.4985 -0.0846  0.7257  0.4666
                ( 47.90%)   0.6921* H  26 s(100.00%)
                                            1.0000
    27. (1.99444) BD ( 1) C  10 - H  27  
                ( 51.74%)   0.7193* C  10 s( 24.79%)p 3.03( 75.21%)
                                            0.0000  0.4979 -0.6051 -0.5706  0.2457
                ( 48.26%)   0.6947* H  27 s(100.00%)
                                            1.0000
    28. (1.99429) BD ( 1) C  10 - H  28  
                ( 51.87%)   0.7202* C  10 s( 24.53%)p 3.08( 75.47%)
                                            0.0000  0.4953  0.7865 -0.3403  0.1427
                ( 48.13%)   0.6938* H  28 s(100.00%)
                                            1.0000
    29. (1.99584) BD ( 1) C  11 - H  29  
                ( 52.48%)   0.7245* C  11 s( 25.04%)p 2.99( 74.96%)
                                            0.0000  0.5004 -0.0181  0.7158  0.4866
                ( 47.52%)   0.6893* H  29 s(100.00%)
                                            1.0000
    30. (1.99485) BD ( 1) C  11 - H  30  
                ( 51.54%)   0.7179* C  11 s( 24.75%)p 3.04( 75.25%)
                                            0.0000  0.4975 -0.1031  0.2164 -0.8337
                ( 48.46%)   0.6961* H  30 s(100.00%)
                                            1.0000
    31. (1.99475) BD ( 1) C  11 - H  31  
                ( 51.73%)   0.7192* C  11 s( 24.40%)p 3.10( 75.60%)
                                            0.0000  0.4940  0.7697 -0.3923  0.0977
                ( 48.27%)   0.6948* H  31 s(100.00%)
                                            1.0000
    32. (1.99997) CR ( 1) C   1           s(100.00%)
                                            1.0000  0.0000  0.0000  0.0000  0.0001
    33. (1.99997) CR ( 1) C   2           s(100.00%)
                                            1.0000  0.0000  0.0000  0.0000  0.0000
    34. (1.99989) CR ( 1) C   3           s(100.00%)
                                            1.0000  0.0000  0.0000  0.0001  0.0001
    35. (1.99996) CR ( 1) C   4           s(100.00%)
                                            1.0000 -0.0001  0.0000 -0.0001  0.0000
    36. (1.99995) CR ( 1) C   5           s(100.00%)
                                            1.0000  0.0000  0.0000  0.0000  0.0000
    37. (1.99996) CR ( 1) C   6           s(100.00%)
                                            1.0000  0.0000  0.0000 -0.0001 -0.0001
    38. (1.99996) CR ( 1) C   7           s(100.00%)
                                            1.0000  0.0000  0.0000  0.0001  0.0000
    39. (1.99999) CR ( 1) O   8           s(100.00%)
                                            1.0000  0.0000  0.0000  0.0000  0.0000
    40. (1.99996) CR ( 1) C   9           s(100.00%)
                                            1.0000  0.0000  0.0001  0.0000  0.0000
    41. (1.99997) CR ( 1) C  10           s(100.00%)
                                            1.0000  0.0000  0.0000  0.0000  0.0001
    42. (1.99997) CR ( 1) C  11           s(100.00%)
                                            1.0000  0.0000  0.0001  0.0000  0.0000
    43. (1.99314) LP ( 1) O   8           s( 66.59%)p 0.50( 33.41%)
                                            0.0000  0.8160  0.2442  0.2726  0.4474
    44. (1.97211) LP ( 2) O   8           s(  0.00%)p 1.00(100.00%)
                                            0.0000  0.0004  0.8112 -0.5775 -0.0917
    45. (0.01114) BD*( 1) C   1 - C   2  
                ( 49.11%)   0.7008* C   1 s( 25.82%)p 2.87( 74.18%)
                                           -0.0001 -0.5081 -0.2490 -0.2364  0.7899
                ( 50.89%)  -0.7134* C   2 s( 25.14%)p 2.98( 74.86%)
                                            0.0000 -0.5014  0.2041  0.2491 -0.8030
    46. (0.00490) BD*( 1) C   1 - H  12  
                ( 48.11%)   0.6936* C   1 s( 24.63%)p 3.06( 75.37%)
                                            0.0000 -0.4963  0.3622 -0.6757 -0.4073
                ( 51.89%)  -0.7204* H  12 s(100.00%)
                                           -1.0000
    47. (0.00494) BD*( 1) C   1 - H  13  
                ( 48.15%)   0.6939* C   1 s( 24.63%)p 3.06( 75.37%)
                                            0.0000 -0.4962  0.5815  0.6422  0.0563
                ( 51.85%)  -0.7201* H  13 s(100.00%)
                                           -1.0000
    48. (0.00673) BD*( 1) C   1 - H  14  
                ( 48.15%)   0.6939* C   1 s( 24.93%)p 3.01( 75.07%)
                                            0.0000 -0.4993 -0.6846  0.2740 -0.4549
                ( 51.85%)  -0.7201* H  14 s(100.00%)
                                           -1.0000
    49. (0.01646) BD*( 1) C   2 - C   6  
                ( 50.33%)   0.7094* C   2 s( 25.16%)p 2.97( 74.84%)
                                            0.0000  0.5016  0.3461 -0.6651 -0.4315
                ( 49.67%)  -0.7048* C   6 s( 25.40%)p 2.94( 74.60%)
                                            0.0001  0.5040 -0.3167  0.6532  0.4680
    50. (0.01589) BD*( 1) C   2 - C   7  
                ( 50.60%)   0.7113* C   2 s( 25.13%)p 2.98( 74.87%)
                                            0.0000  0.5013  0.5681  0.6519  0.0336
                ( 49.40%)  -0.7029* C   7 s( 25.67%)p 2.90( 74.33%)
                                            0.0001  0.5067 -0.5398 -0.6723 -0.0017
    51. (0.01047) BD*( 1) C   2 - H  15  
                ( 48.83%)   0.6988* C   2 s( 24.57%)p 3.07( 75.43%)
                                            0.0000 -0.4957  0.7182 -0.2658  0.4097
                ( 51.17%)  -0.7153* H  15 s(100.00%)
                                           -1.0000
    52. (0.03325) BD*( 1) C   3 - C   5  
                ( 50.08%)   0.7077* C   3 s( 25.75%)p 2.88( 74.25%)
                                            0.0001  0.5074  0.3274 -0.6469 -0.4657
                ( 49.92%)  -0.7065* C   5 s( 25.39%)p 2.94( 74.61%)
                                            0.0000  0.5039 -0.3037  0.6419  0.4918
    53. (0.02752) BD*( 1) C   3 - C   7  
                ( 50.67%)   0.7118* C   3 s( 25.41%)p 2.94( 74.59%)
                                            0.0000  0.5040 -0.7910  0.1993 -0.2838
                ( 49.33%)  -0.7024* C   7 s( 25.28%)p 2.96( 74.72%)
                                            0.0000  0.5028  0.7819 -0.2495  0.2712
    54. (0.02203) BD*( 1) C   3 - O   8  
                ( 58.91%)   0.7676* C   3 s( 22.45%)p 3.45( 77.55%)
                                            0.0000  0.4739  0.5163  0.7061 -0.1015
                ( 41.09%)  -0.6410* O   8 s( 16.60%)p 5.02( 83.40%)
                                            0.0000  0.4075 -0.5298 -0.7438 -0.0008
    55. (0.01873) BD*( 1) C   3 - H  16  
                ( 48.60%)   0.6971* C   3 s( 26.39%)p 2.79( 73.61%)
                                            0.0000 -0.5137  0.0236  0.2079 -0.8321
                ( 51.40%)  -0.7170* H  16 s(100.00%)
                                           -1.0000
    56. (0.01563) BD*( 1) C   4 - C   5  
                ( 49.60%)   0.7043* C   4 s( 25.30%)p 2.95( 74.70%)
                                           -0.0001 -0.5029 -0.5398 -0.6750 -0.0027
                ( 50.40%)  -0.7099* C   5 s( 24.81%)p 3.03( 75.19%)
                                            0.0000 -0.4981  0.5483  0.6712 -0.0270
    57. (0.01200) BD*( 1) C   4 - C   6  
                ( 50.04%)   0.7074* C   4 s( 25.19%)p 2.97( 74.81%)
                                            0.0000  0.5019 -0.7833  0.2535 -0.2650
                ( 49.96%)  -0.7068* C   6 s( 25.32%)p 2.95( 74.68%)
                                            0.0000  0.5032  0.7861 -0.2138  0.2885
    58. (0.01104) BD*( 1) C   4 - H  17  
                ( 48.56%)   0.6968* C   4 s( 24.76%)p 3.04( 75.24%)
                                            0.0000 -0.4976  0.0582  0.3274 -0.8011
                ( 51.44%)  -0.7172* H  17 s(100.00%)
                                           -1.0000
    59. (0.00853) BD*( 1) C   4 - H  18  
                ( 48.54%)   0.6967* C   4 s( 24.75%)p 3.04( 75.25%)
                                            0.0000 -0.4975 -0.3027  0.6106  0.5366
                ( 51.46%)  -0.7174* H  18 s(100.00%)
                                           -1.0000
    60. (0.02272) BD*( 1) C   5 - C   9  
                ( 49.70%)   0.7050* C   5 s( 25.56%)p 2.91( 74.44%)
                                           -0.0001 -0.5056 -0.7761  0.2474 -0.2843
                ( 50.30%)  -0.7092* C   9 s( 25.41%)p 2.94( 74.59%)
                                           -0.0001 -0.5041  0.7869 -0.2958  0.1981
    61. (0.01294) BD*( 1) C   5 - H  19  
                ( 49.38%)   0.7027* C   5 s( 24.24%)p 3.13( 75.76%)
                                            0.0000 -0.4923 -0.0687 -0.2762  0.8226
                ( 50.62%)  -0.7115* H  19 s(100.00%)
                                           -1.0000
    62. (0.00881) BD*( 1) C   6 - H  20  
                ( 48.50%)   0.6964* C   6 s( 24.98%)p 3.00( 75.02%)
                                            0.0000 -0.4998  0.5278  0.6842 -0.0594
                ( 51.50%)  -0.7177* H  20 s(100.00%)
                                           -1.0000
    63. (0.00895) BD*( 1) C   6 - H  21  
                ( 48.71%)   0.6979* C   6 s( 24.30%)p 3.12( 75.70%)
                                            0.0000 -0.4929 -0.0566 -0.2440  0.8332
                ( 51.29%)  -0.7162* H  21 s(100.00%)
                                           -1.0000
    64. (0.00908) BD*( 1) C   7 - H  22  
                ( 48.20%)   0.6943* C   7 s( 24.97%)p 3.00( 75.03%)
                                            0.0000 -0.4997  0.3048 -0.6200 -0.5225
                ( 51.80%)  -0.7197* H  22 s(100.00%)
                                           -1.0000
    65. (0.00979) BD*( 1) C   7 - H  23  
                ( 48.89%)   0.6992* C   7 s( 24.07%)p 3.15( 75.93%)
                                            0.0000 -0.4906 -0.0665 -0.3185  0.8083
                ( 51.11%)  -0.7149* H  23 s(100.00%)
                                           -1.0000
    66. (0.00884) BD*( 1) O   8 - H  24  
                ( 40.50%)   0.6364* O   8 s( 16.81%)p 4.95( 83.19%)
                                            0.0000  0.4100  0.0397  0.1972 -0.8896
                ( 59.50%)  -0.7713* H  24 s(100.00%)
                                            1.0000
    67. (0.01053) BD*( 1) C   9 - C  10  
                ( 50.91%)   0.7135* C   9 s( 25.33%)p 2.95( 74.67%)
                                            0.0000  0.5033  0.0520 -0.1506  0.8493
                ( 49.09%)  -0.7007* C  10 s( 25.83%)p 2.87( 74.17%)
                                            0.0001  0.5082 -0.0907  0.1789 -0.8376
    68. (0.01034) BD*( 1) C   9 - C  11  
                ( 50.84%)   0.7130* C   9 s( 25.07%)p 2.99( 74.93%)
                                            0.0000  0.5007  0.5976  0.5824 -0.2300
                ( 49.16%)  -0.7011* C  11 s( 25.81%)p 2.87( 74.19%)
                                            0.0001  0.5080 -0.6297 -0.5356  0.2420
    69. (0.01102) BD*( 1) C   9 - H  25  
                ( 49.06%)   0.7004* C   9 s( 24.19%)p 3.13( 75.81%)
                                            0.0000 -0.4918 -0.1449  0.7420  0.4319
                ( 50.94%)  -0.7138* H  25 s(100.00%)
                                           -1.0000
    70. (0.00617) BD*( 1) C  10 - H  26  
                ( 47.90%)   0.6921* C  10 s( 24.85%)p 3.02( 75.15%)
                                            0.0000 -0.4985  0.0846 -0.7257 -0.4666
                ( 52.10%)  -0.7218* H  26 s(100.00%)
                                           -1.0000
    71. (0.00612) BD*( 1) C  10 - H  27  
                ( 48.26%)   0.6947* C  10 s( 24.79%)p 3.03( 75.21%)
                                            0.0000 -0.4979  0.6051  0.5706 -0.2457
                ( 51.74%)  -0.7193* H  27 s(100.00%)
                                           -1.0000
    72. (0.00474) BD*( 1) C  10 - H  28  
                ( 48.13%)   0.6938* C  10 s( 24.53%)p 3.08( 75.47%)
[...]

 Contributions to Isotropic shielding for atom    8 (   350.1860 ppm):
                         Standard Origin              Atomic Origin
 NLMO      Total    Paramagnetic  Diamagnetic   Paramagnetic  Diamagnetic
    6      -1.2414       -1.5355       0.2940        -1.2162      -0.0252
    9      -0.7929       -0.4181      -0.3748        -1.6723       0.8794
   10      22.1267        5.4048      16.7219        11.5697      10.5570
   11       1.0239        0.2675       0.7564        -0.2227       1.2466
   12      -0.9799       -1.1346       0.1548        -0.9762      -0.0037
   17      -0.2780       -0.5449       0.2670        -1.1135       0.8356
   21      -0.3502       -0.9424       0.5922        -1.3488       0.9986
   22      21.6846        9.4287      12.2559         7.2135      14.4711
   29      -0.4592       -1.4169       0.9577        -1.0574       0.5982
   39     271.1764       -0.0060     271.1824        -0.0028     271.1792
   43      33.2783        1.4314      31.8469        -4.1422      37.4205
   44       3.9979      -34.6231      38.6210       -35.8675      39.8653
 Sum      349.1862      -24.0891     373.2753       -28.8364     378.0226

 Contributions to Isotropic shielding for atom    9 (   212.0927 ppm):
                         Standard Origin              Atomic Origin
 NLMO      Total    Paramagnetic  Diamagnetic   Paramagnetic  Diamagnetic
   10      -0.0048       -0.2522       0.2474        -1.1115       1.1067
   15      -0.1312       -0.5020       0.3708        -1.0165       0.8853
   16       5.0689       -9.6150      14.6839        -2.5805       7.6494
   23      -0.4259       -6.5826       6.1567        -7.9905       7.5646
   24      -1.8899       -5.1254       3.2354        -9.4564       7.5665
   25       4.9484       -1.2416       6.1900        -5.8768      10.8251
   26       0.8806       -0.2896       1.1702        -0.1532       1.0338
   27       0.6286       -0.5274       1.1560        -0.3844       1.0131
   28       0.5768       -0.2080       0.7848        -0.4617       1.0386
   29       0.9737       -0.3589       1.3326        -0.0595       1.0332
   30       0.7131       -0.5999       1.3130        -0.3155       1.0285
   31       0.6200       -0.3437       0.9637        -0.4131       1.0331
   40     199.9252       -0.0022     199.9274         0.0028     199.9224
 Sum      211.8834      -25.6486     237.5320       -29.8168     241.7002

 Contributions to Isotropic shielding for atom   10 (   224.1765 ppm):
                         Standard Origin              Atomic Origin
 NLMO      Total    Paramagnetic  Diamagnetic   Paramagnetic  Diamagnetic
   23       3.9460       -9.0851      13.0311        -3.9904       7.9364
   24      -0.3649       -0.0100      -0.3548        -1.0518       0.6870
   26       6.6983       -4.9414      11.6397        -4.5247      11.2231
   27       6.8496       -4.8765      11.7261        -4.2301      11.0797
   28       6.0629        3.4587       2.6042        -5.0416      11.1045
   41     200.0734       -0.0023     200.0757         0.0015     200.0719
 Sum      223.2654      -15.4566     238.7219       -18.8372     242.1026

 Contributions to Isotropic shielding for atom   11 (   220.4658 ppm):
                         Standard Origin              Atomic Origin
 NLMO      Total    Paramagnetic  Diamagnetic   Paramagnetic  Diamagnetic
   17      -0.2385       -0.1376      -0.1009        -1.1610       0.9225
   23      -0.4791        0.0025      -0.4816        -1.1767       0.6977
   24       4.2444      -11.2111      15.4554        -3.6729       7.9172
   25       0.2640        0.1695       0.0945        -0.7871       1.0511
   29       5.9985       -5.0307      11.0291        -5.3811      11.3796
   30       5.5268       -4.0078       9.5347        -5.4830      11.0098
   31       4.8740        2.6300       2.2440        -6.1756      11.0496
   42     200.0764       -0.0036     200.0800         0.0021     200.0743
 Sum      220.2665      -17.5888     237.8553       -23.8353     244.1018

 Contributions to Isotropic shielding for atom   12 (    32.5374 ppm):
                         Standard Origin              Atomic Origin
 NLMO      Total    Paramagnetic  Diamagnetic   Paramagnetic  Diamagnetic
    1       1.3250        0.3116       1.0134         0.2958       1.0292
    2      26.3049        0.1192      26.1857         0.4148      25.8900
    3       1.9249        2.4067      -0.4818         0.0829       1.8419
    4       2.1048        0.5261       1.5788         0.2495       1.8554
 Sum       31.6596        3.3635      28.2961         1.0430      30.6165

 Contributions to Isotropic shielding for atom   13 (    32.6102 ppm):
                         Standard Origin              Atomic Origin
 NLMO      Total    Paramagnetic  Diamagnetic   Paramagnetic  Diamagnetic
    1       1.2384        0.5636       0.6748         0.2086       1.0298
    2       1.9550        2.3575      -0.4025         0.1130       1.8420
    3      26.3433        0.0797      26.2636         0.4324      25.9109
    4       2.0866        0.7337       1.3529         0.2331       1.8535
 Sum       31.6233        3.7345      27.8889         0.9871      30.6362

 Contributions to Isotropic shielding for atom   14 (    32.6237 ppm):
                         Standard Origin              Atomic Origin
 NLMO      Total    Paramagnetic  Diamagnetic   Paramagnetic  Diamagnetic
    1       1.6204       -1.2832       2.9037         0.7297       0.8907
    2       1.9989        0.8543       1.1445         0.1560       1.8428
    3       1.9753        1.1371       0.8382         0.1344       1.8409
    4      26.2951        0.3835      25.9116         0.3589      25.9362
 Sum       31.8897        1.0917      30.7980         1.3790      30.5107

 Contributions to Isotropic shielding for atom   15 (    32.4386 ppm):
                         Standard Origin              Atomic Origin
 NLMO      Total    Paramagnetic  Diamagnetic   Paramagnetic  Diamagnetic
    1       0.7964        2.2502      -1.4538        -0.2234       1.0199
    5       1.1678        1.3795      -0.2117         0.1877       0.9801
    6       1.2944        1.0824       0.2120         0.3429       0.9515
    7      26.5354       -0.2867      26.8220         0.5115      26.0238
   19       0.1487        0.0254       0.1234        -0.8863       1.0350
   21       0.1103        0.1699      -0.0596        -0.9331       1.0434
 Sum       30.0531        4.6208      25.4322        -1.0007      31.0538

 Contributions to Isotropic shielding for atom   16 (    31.6390 ppm):
                         Standard Origin              Atomic Origin
 NLMO      Total    Paramagnetic  Diamagnetic   Paramagnetic  Diamagnetic
    4      -0.3308       -1.0099       0.6791        -0.8671       0.5363
    8       1.0875       -0.0961       1.1836         0.1703       0.9172
   10       1.0231        0.5042       0.5190        -1.0000       2.0232
   11      26.2529        0.4856      25.7673         0.6869      25.5660
   26      -0.2870       -1.3013       1.0143        -1.0302       0.7432
 Sum       27.7457       -1.4176      29.1633        -2.0402      29.7859

 Contributions to Isotropic shielding for atom   17 (    32.6614 ppm):
                         Standard Origin              Atomic Origin
 NLMO      Total    Paramagnetic  Diamagnetic   Paramagnetic  Diamagnetic
   12       1.4180       -0.0969       1.5149         0.5215       0.8965
   13       1.0368        0.8394       0.1975         0.0866       0.9503
   14      26.4260        0.1796      26.2464         0.4037      26.0223
   15       1.9842        1.4388       0.5454         0.2247       1.7595
   23      -0.0043       -0.5506       0.5463        -1.0124       1.0081
   27      -0.3902       -1.2385       0.8483        -0.8103       0.4201
 Sum       30.4705        0.5718      29.8988        -0.5863      31.0568

 Contributions to Isotropic shielding for atom   18 (    32.6030 ppm):
                         Standard Origin              Atomic Origin
 NLMO      Total    Paramagnetic  Diamagnetic   Paramagnetic  Diamagnetic
   12       1.3509        0.5176       0.8333         0.4042       0.9466
   13       0.9981        1.4720      -0.4740        -0.0373       1.0354
   14       2.1013        1.2564       0.8449         0.3337       1.7676
   15      26.4366        0.0401      26.3965         0.4658      25.9708
   19       0.2057       -0.4034       0.6091        -0.8070       1.0127
   25      -0.1712       -1.0151       0.8439        -0.8868       0.7156
 Sum       30.9214        1.8676      29.0537        -0.5274      31.4488

 Contributions to Isotropic shielding for atom   19 (    33.2650 ppm):
                         Standard Origin              Atomic Origin
 NLMO      Total    Paramagnetic  Diamagnetic   Paramagnetic  Diamagnetic
    8       1.3348        0.7408       0.5940         0.4307       0.9041
   10      -0.0657       -0.1155       0.0498        -1.0983       1.0326
   12       1.1624        0.9220       0.2404         0.2028       0.9596
   16       1.0932        1.3228      -0.2296        -0.0377       1.1308
   17      26.6802        0.0576      26.6226         0.4449      26.2353
   22      -0.0575       -1.0001       0.9426        -0.7440       0.6866
   24      -0.0407       -0.6175       0.5768        -1.0398       0.9991
   30      -0.1517       -1.5477       1.3960        -1.0346       0.8829
 Sum       29.9550       -0.2376      30.1926        -2.8760      32.8309

 Contributions to Isotropic shielding for atom   20 (    32.5207 ppm):
                         Standard Origin              Atomic Origin
 NLMO      Total    Paramagnetic  Diamagnetic   Paramagnetic  Diamagnetic
    1      -0.0952        0.0002      -0.0954        -1.0632       0.9680
    3      -0.0987       -1.0307       0.9320        -0.9922       0.8935
    5       1.0337        1.2735      -0.2398         0.1248       0.9089
   13       1.2265        0.6703       0.5562         0.2162       1.0103
   18      26.4494       -0.0007      26.4501         0.5002      25.9492
   19       2.0190        1.8267       0.1923         0.2837       1.7353
 Sum       30.5347        2.7393      27.7954        -0.9305      31.4653

 Contributions to Isotropic shielding for atom   21 (    32.6253 ppm):
                         Standard Origin              Atomic Origin
 NLMO      Total    Paramagnetic  Diamagnetic   Paramagnetic  Diamagnetic
    5       1.2288        0.6717       0.5571         0.2516       0.9772
   13       1.3838        0.0405       1.3432         0.4102       0.9735
   18       1.9228        2.0478      -0.1250         0.1457       1.7771
   19      26.5184        0.1261      26.3923         0.4353      26.0831
 Sum       31.0537        2.8860      28.1677         1.2428      29.8109

 Contributions to Isotropic shielding for atom   22 (    32.0546 ppm):
                         Standard Origin              Atomic Origin
 NLMO      Total    Paramagnetic  Diamagnetic   Paramagnetic  Diamagnetic
    1      -0.0484       -0.2613       0.2130        -1.0136       0.9653
    2      -0.1052       -1.1250       1.0197        -0.9970       0.8918
    6       0.9576        1.2386      -0.2810         0.0397       0.9180
    9       1.2717        0.3496       0.9221         0.3201       0.9516
   10      -0.0872        0.1987      -0.2859        -1.4301       1.3429
   11       0.1150        0.0244       0.0905        -0.8983       1.0133
   20      26.2514        0.0650      26.1865         0.4760      25.7755
   21       1.9515        1.5773       0.3742         0.1499       1.8016
 Sum       30.3065        2.0673      28.2391        -3.3535      33.6600

 Contributions to Isotropic shielding for atom   23 (    32.9657 ppm):
                         Standard Origin              Atomic Origin
 NLMO      Total    Paramagnetic  Diamagnetic   Paramagnetic  Diamagnetic
    6       1.0882        0.8869       0.2013         0.0999       0.9883
    9       1.4618        0.1380       1.3238         0.5990       0.8629
   10      -0.1872        0.1792      -0.3664        -1.3508       1.1636
   20       1.9739        1.7258       0.2481         0.1115       1.8624
   21      26.5927        0.1340      26.4588         0.4319      26.1608
 Sum       30.9295        3.0639      27.8655        -0.1084      31.0379

 Contributions to Isotropic shielding for atom   24 (    35.5215 ppm):
                         Standard Origin              Atomic Origin
 NLMO      Total    Paramagnetic  Diamagnetic   Paramagnetic  Diamagnetic
    9      -0.1137        0.3080      -0.4217        -1.0326       0.9189
   10       1.9211        1.5170       0.4040         1.2941       0.6270
   21      -0.0761       -0.6308       0.5546        -1.0136       0.9375
   22      22.9906       -0.3585      23.3492        -0.1699      23.1606
   43       3.9171        1.4914       2.4257         1.9764       1.9407
   44       5.6046        2.5160       3.0886         2.4648       3.1398
 Sum       34.2436        4.8431      29.4005         3.5191      30.7245

 Contributions to Isotropic shielding for atom   25 (    32.5471 ppm):
                         Standard Origin              Atomic Origin
 NLMO      Total    Paramagnetic  Diamagnetic   Paramagnetic  Diamagnetic
   12      -0.1557        0.2661      -0.4218        -1.2409       1.0852
   15      -0.1237       -0.5650       0.4413        -1.0131       0.8894
   16       1.6502        0.1414       1.5087         0.6229       1.0272
   23       0.9890        1.5570      -0.5680        -0.0523       1.0413
   24       0.8435        2.0651      -1.2216        -0.2194       1.0630
   25      26.5640       -0.1525      26.7165         0.4598      26.1042
   31       0.1879       -0.6748       0.8627        -0.8451       1.0330
 Sum       29.9552        2.6374      27.3178        -2.2881      32.2434

 Contributions to Isotropic shielding for atom   26 (    32.4293 ppm):
                         Standard Origin              Atomic Origin
 NLMO      Total    Paramagnetic  Diamagnetic   Paramagnetic  Diamagnetic
    8      -0.1055       -0.0105      -0.0951        -1.0555       0.9500
   10       0.0596       -0.1442       0.2038        -1.2079       1.2675
   23       1.4668       -0.5499       2.0167         0.5382       0.9286
   26      26.1772        0.2770      25.9001         0.3880      25.7892
   27       2.1161        0.3658       1.7503         0.3000       1.8161
   28       1.9771        1.9664       0.0108         0.1249       1.8522
 Sum       31.6912        1.9046      29.7866        -0.9124      32.6036

 Contributions to Isotropic shielding for atom   27 (    32.6029 ppm):
                         Standard Origin              Atomic Origin
 NLMO      Total    Paramagnetic  Diamagnetic   Paramagnetic  Diamagnetic
   12      -0.0549        0.0015      -0.0564        -1.0085       0.9536
   23       1.4723       -0.6276       2.1000         0.4704       1.0019
   26       2.1184        0.3574       1.7610         0.2767       1.8417
   27      26.3658        0.2802      26.0856         0.3699      25.9959
   28       1.9644        1.9101       0.0543         0.1045       1.8599
 Sum       31.8660        1.9216      29.9444         0.2130      31.6530

 Contributions to Isotropic shielding for atom   28 (    32.4896 ppm):
                         Standard Origin              Atomic Origin
 NLMO      Total    Paramagnetic  Diamagnetic   Paramagnetic  Diamagnetic
   23       1.1508        0.9283       0.2225         0.1258       1.0250
   24      -0.1261        0.5185      -0.6445        -1.0919       0.9659
   26       2.0208        1.5798       0.4410         0.1470       1.8738
   27       2.0364        1.5505       0.4859         0.1781       1.8583
   28      26.2988       -0.0324      26.3312         0.3961      25.9026
 Sum       31.3808        4.5447      26.8361        -0.2449      31.6257

 Contributions to Isotropic shielding for atom   29 (    31.9997 ppm):
                         Standard Origin              Atomic Origin
 NLMO      Total    Paramagnetic  Diamagnetic   Paramagnetic  Diamagnetic
   23      -0.1548        0.2388      -0.3937        -1.0959       0.9410
   24       1.5277       -0.9836       2.5112         0.6232       0.9045
   29      26.0235        0.3025      25.7211         0.4331      25.5905
   30       1.9846        0.7398       1.2448         0.1860       1.7987
   31       1.8823        2.0243      -0.1420         0.0171       1.8653
 Sum       31.2634        2.3219      28.9415         0.1634      31.1000

 Contributions to Isotropic shielding for atom   30 (    32.7298 ppm):
                         Standard Origin              Atomic Origin
 NLMO      Total    Paramagnetic  Diamagnetic   Paramagnetic  Diamagnetic
   16      -0.0691        0.0936      -0.1627        -1.0463       0.9772
   24       1.5647       -0.7298       2.2946         0.5814       0.9834
   29       2.0652        0.7323       1.3329         0.2095       1.8556
   30      26.4896        0.2702      26.2194         0.4165      26.0731
   31       1.9148        2.2278      -0.3131         0.0829       1.8319
 Sum       31.9652        2.5941      29.3711         0.2440      31.7212

 Contributions to Isotropic shielding for atom   31 (    32.4073 ppm):
                         Standard Origin              Atomic Origin
 NLMO      Total    Paramagnetic  Diamagnetic   Paramagnetic  Diamagnetic
   23      -0.1387        0.6816      -0.8203        -1.0478       0.9091
   24       1.2238        0.4145       0.8093         0.1994       1.0244
   29       1.9768        1.6997       0.2771         0.0794       1.8974
   30       1.9174        1.8707       0.0467         0.0751       1.8423
   31      26.4269        0.0067      26.4202         0.4486      25.9782
 Sum       31.4061        4.6732      26.7329        -0.2453      31.6514
 
 1\1\GINC-COMPUTE-10-7\SP\RHF\STO-3G\C10H20O1\YTSAI.IQUIR\24-May-2020\0
 \\# rhf/STO-3G nmr pop=nbo\\comment\\0,1\C,0,0.125637379,0.934736169,-
 2.904963957\C,0,-0.988599197,0.143407948,-2.215392578\C,0,0.38464765,-
 0.952523882,-0.349226846\C,0,-0.859727861,1.204125603,0.10316587\C,0,-
 0.361260954,-0.120652684,0.717914869\C,0,-1.706237294,0.978292556,-1.1
 4903614\C,0,-0.466208015,-1.161588899,-1.607742556\O,0,0.736222663,-2.
 237398976,0.154667328\C,0,0.436781677,0.156721436,2.029288892\C,0,1.83
 0424805,0.748078403,1.800452075\C,0,0.545879816,-1.078111991,2.9304290
 61\H,0,0.590003553,0.334695058,-3.694881914\H,0,-0.278100912,1.8400833
 02,-3.370737059\H,0,0.914167204,1.239693564,-2.21102454\H,0,-1.7216759
 34,-0.114868971,-2.990760241\H,0,1.318380176,-0.456167033,-0.631886807
 \H,0,-0.014611432,1.855099855,-0.145116615\H,0,-1.464741006,1.74725948
 6,0.839541673\H,0,-1.254126821,-0.690230984,1.01558914\H,0,-2.00911792
 1,1.946035471,-1.56625729\H,0,-2.631006388,0.462761577,-0.85893885\H,0
 ,0.109349454,-1.728270558,-2.350852583\H,0,-1.320604539,-1.805519757,-
 1.357124127\H,0,-0.082154244,-2.684917971,0.429677192\H,0,-0.137282444
 ,0.897370739,2.603375249\H,0,2.498416688,0.033632562,1.309044166\H,0,1
 .789519403,1.655194857,1.191215682\H,0,2.290251966,1.019627515,2.75733
 8259\H,0,1.243220829,-1.820769452,2.533339412\H,0,-0.430144271,-1.5548
 77182,3.066490797\H,0,0.912695969,-0.790917761,3.922412438\\Version=EM
 64L-G09RevC.01\State=1-A\HF=-459.6197983\RMSD=8.526e-09\Dipole=-0.5311
 616,0.2358313,-0.0511842\Quadrupole=-0.2000346,-0.3878048,0.5878395,2.
 6516357,-0.3916818,-0.0100851\PG=C01 [X(C10H20O1)]\\@


 THE WORLD IS MADE UP OF THE WILLS, THE WON'TS, AND THE CANT'S:
 THE WILLS DO EVERYTHING,
 THE WON'TS DO NOTHING,
 THE CAN'TS CAN'T DO ANYTHING.

                               -- FROM WALT DISNEY'S "BLACK HOLE"
 Job cpu time:  0 days  0 hours  0 minutes 39.5 seconds.
 File lengths (MBytes):  RWF=      5 Int=      0 D2E=      0 Chk=      1 Scr=      1
 Normal termination of Gaussian 09 at Sun May 24 02:08:19 2020.
